# vtk DataFile Version 2.0
trawl body or surfaces
ASCII

DATASET UNSTRUCTURED_GRID
POINTS 108 float
2.6638036E+02  1.3395493E+01  -1.2525312E+02
2.7163026E+02  1.1447061E+01  -1.2520544E+02
2.8526299E+02  1.0453972E+01  -1.2616183E+02
3.0755493E+02  3.9522336E+00  -1.2896501E+02
3.0730098E+02  2.9579038E+00  -1.3208866E+02
2.8471345E+02  9.4071849E+00  -1.3328046E+02
2.7080645E+02  1.0492365E+01  -1.3369534E+02
2.6558306E+02  1.2511738E+01  -1.3368487E+02
2.8541635E+02  1.1827362E+01  -1.3117842E+02
2.8560458E+02  1.2428027E+01  -1.3068469E+02
2.6604042E+02  1.1313985E+01  -1.2489493E+02
2.8437492E+02  2.2109205E+00  -1.2613310E+02
2.8458846E+02  -1.1827411E+00  -1.2615462E+02
2.6614909E+02  -1.0172532E+01  -1.2458100E+02
2.7174000E+02  -1.0289950E+01  -1.2487862E+02
2.8545150E+02  -9.6655761E+00  -1.2555816E+02
3.0762281E+02  -3.3427023E+00  -1.2909670E+02
2.6527422E+02  1.1340113E+01  -1.3388925E+02
2.8388788E+02  2.0000534E+00  -1.3336113E+02
2.8350608E+02  -1.3778702E+00  -1.3343793E+02
2.6501725E+02  -1.0682775E+01  -1.3433618E+02
2.7049938E+02  -9.5762269E+00  -1.3404859E+02
2.8419374E+02  -7.2661177E+00  -1.3344007E+02
3.0733622E+02  -1.9345034E+00  -1.3202732E+02
2.6533732E+02  -1.1744549E+01  -1.3416745E+02
2.6646295E+02  -1.2163517E+01  -1.2492891E+02
2.8547093E+02  -1.0904251E+01  -1.3102169E+02
2.8513562E+02  -1.0477376E+01  -1.3160937E+02
3.1142966E+02  3.0352267E+00  -1.2929218E+02
3.1125841E+02  2.3245365E+00  -1.3182583E+02
3.1148068E+02  -2.3092634E+00  -1.2931642E+02
3.1126771E+02  -1.2499724E+00  -1.3176020E+02
3.1536750E+02  2.5683702E+00  -1.2963900E+02
3.1524475E+02  2.0191423E+00  -1.3166592E+02
3.1541675E+02  -1.8109571E+00  -1.2962800E+02
3.1525179E+02  -9.4247764E-01  -1.3162739E+02
3.2009917E+02  2.0185114E+00  -1.3003990E+02
3.2002876E+02  1.6648375E+00  -1.3146683E+02
3.2014500E+02  -1.2234373E+00  -1.2998060E+02
3.2003338E+02  -5.9585979E-01  -1.3147366E+02
3.2484253E+02  1.5465031E+00  -1.3043826E+02
3.2481816E+02  1.3450024E+00  -1.3124152E+02
3.2488663E+02  -7.1723927E-01  -1.3032209E+02
3.2482009E+02  -2.9902110E-01  -1.3131223E+02
3.3280980E+02  8.7170476E-01  -1.3082233E+02
3.3280192E+02  8.7208171E-01  -1.3104634E+02
3.3280690E+02  7.0027969E-02  -1.3076077E+02
3.3280602E+02  1.7857708E-01  -1.3097634E+02
3.4280775E+02  6.2720998E-01  -1.3092582E+02
3.4280824E+02  3.9409873E-01  -1.3092186E+02
3.6281764E+02  3.6494943E-01  -1.3092290E+02
3.6281746E+02  6.8147456E-01  -1.3092830E+02
3.8530053E+02  5.2461132E-01  -1.3092790E+02
3.8530051E+02  5.4460967E-01  -1.3092824E+02
0.0000000E+00  0.0000000E+00  0.0000000E+00
1.6330619E+02  3.7971005E+01  -1.0909345E+02
1.6579021E+02  3.8957983E+01  -1.0773104E+02
1.6571573E+02  3.6855115E+01  -1.1049012E+02
2.6083093E+02  1.3334824E+01  -1.2450353E+02
2.6005849E+02  1.3383370E+01  -1.3399314E+02
2.6085975E+02  1.3383371E+01  -1.3582853E+02
1.6335387E+02  -3.7687824E+01  -1.0912021E+02
1.6569902E+02  -3.6803368E+01  -1.1076939E+02
1.6585897E+02  -3.7908978E+01  -1.0748425E+02
2.5985881E+02  -1.2860376E+01  -1.3451409E+02
2.6092077E+02  -1.2131031E+01  -1.2412567E+02
2.6066007E+02  -1.2860376E+01  -1.3634948E+02
1.8657590E+01  3.6704236E+00  -1.1527027E+01
3.7212182E+01  7.4618273E+00  -2.3180214E+01
5.5654752E+01  1.1380417E+01  -3.4968130E+01
7.3975269E+01  1.5432842E+01  -4.6900000E+01
9.2162574E+01  1.9626236E+01  -5.8985761E+01
1.1020415E+02  2.3968236E+01  -7.1236070E+01
1.2808605E+02  2.8467053E+01  -8.3662420E+01
1.4579260E+02  3.3131493E+01  -9.6277139E+01
1.7937050E+02  3.5975181E+01  -1.1101923E+02
1.9296448E+02  3.2794333E+01  -1.1405548E+02
2.0656620E+02  2.9401009E+01  -1.1681413E+02
2.2016731E+02  2.5778983E+01  -1.1926798E+02
2.3375633E+02  2.1909548E+01  -1.2138820E+02
2.4731779E+02  1.7770505E+01  -1.2314427E+02
1.7919228E+02  3.3753823E+01  -1.1409386E+02
1.9267061E+02  3.0572860E+01  -1.1762053E+02
2.0614995E+02  2.7309784E+01  -1.2106722E+02
2.1962945E+02  2.3962036E+01  -1.2443094E+02
2.3310813E+02  2.0526946E+01  -1.2770862E+02
2.4658490E+02  1.7001705E+01  -1.3089710E+02
1.8662053E+01  -3.6420623E+00  -1.1528743E+01
3.7221307E+01  -7.4043901E+00  -2.3183874E+01
5.5668746E+01  -1.1293164E+01  -3.4973992E+01
7.3994343E+01  -1.5315008E+01  -4.6908354E+01
9.2186943E+01  -1.9477027E+01  -5.8996939E+01
1.1023403E+02  -2.3786833E+01  -7.1250446E+01
1.2812166E+02  -2.8252609E+01  -8.3680420E+01
1.4583415E+02  -3.2883132E+01  -9.6299246E+01
1.7915362E+02  -3.3657136E+01  -1.1441492E+02
1.9260892E+02  -3.0424573E+01  -1.1798136E+02
2.0606398E+02  -2.7102792E+01  -1.2146556E+02
2.1951778E+02  -2.3688758E+01  -1.2486430E+02
2.3296911E+02  -2.0179285E+01  -1.2817425E+02
2.4641663E+02  -1.6571007E+01  -1.3139202E+02
1.7944558E+02  -3.4827129E+01  -1.1065392E+02
1.9304202E+02  -3.1566855E+01  -1.1359454E+02
2.0664312E+02  -2.8116681E+01  -1.1628613E+02
2.2024203E+02  -2.4463810E+01  -1.1870770E+02
2.3382967E+02  -2.0593700E+01  -1.2083719E+02
2.4739431E+02  -1.6489449E+01  -1.2265137E+02
3.0763209E+02  -3.3349886E+00  -1.2904690E+02

CELLS 88 352
3 6 5 7
3 8 7 5
3 9 8 4
3 5 4 8
3 3 2 9
3 0 2 1
3 0 9 2
3 9 4 3
3 2 3 11
3 1 11 10
3 11 1 2
3 3 107 11
3 12 107 16
3 107 12 11
3 12 16 15
3 12 14 13
3 14 12 15
3 22 23 19
3 21 19 20
3 19 21 22
3 23 4 19
3 18 4 5
3 4 18 19
3 18 6 17
3 6 18 5
3 14 15 25
3 26 25 15
3 27 26 16
3 15 16 26
3 23 22 27
3 24 22 21
3 24 27 22
3 27 16 23
3 4 29 28
3 28 3 4
3 3 28 107
3 30 16 107
3 30 107 28
3 23 31 29
3 29 4 23
3 16 30 31
3 31 23 16
3 29 33 32
3 32 28 29
3 28 32 34
3 34 30 28
3 31 35 33
3 33 29 31
3 30 34 35
3 35 31 30
3 33 37 36
3 36 32 33
3 32 36 38
3 38 34 32
3 35 39 37
3 37 33 35
3 34 38 39
3 39 35 34
3 37 41 40
3 40 36 37
3 36 40 42
3 42 38 36
3 39 43 41
3 41 37 39
3 38 42 43
3 43 39 38
3 40 41 45
3 45 44 40
3 40 44 46
3 46 42 40
3 43 47 45
3 45 41 43
3 43 42 46
3 46 47 43
3 45 48 44
3 46 44 48
3 48 49 46
3 45 47 49
3 49 48 45
3 46 49 47
3 49 48 51
3 51 50 49
3 48 49 50
3 50 51 48
3 50 51 53
3 53 52 50
3 51 50 52
3 52 53 51

CELL_TYPES 88
5
5
5
5
5
5
5
5
5
5
5
5
5
5
5
5
5
5
5
5
5
5
5
5
5
5
5
5
5
5
5
5
5
5
5
5
5
5
5
5
5
5
5
5
5
5
5
5
5
5
5
5
5
5
5
5
5
5
5
5
5
5
5
5
5
5
5
5
5
5
5
5
5
5
5
5
5
5
5
5
5
5
5
5
5
5
5
5

CELL_DATA 88
SCALARS u_tension_in_N double 1
LOOKUP_TABLE default
-0.0183225
3.43651
96.1005
-0.0151529
81.1062
-0.0199266
-0.0374905
-0.0133192
49.0236
634.226
24.0886
34.02
-0.0290291
-0.000443573
109.499
0.2727
10.3514
102.743
897.183
213.6
198.867
45.0897
101.065
0.745871
34.818
-0.037689
0.34813
-0.0613723
-0.0106079
20.5599
-0.0135687
-0.0300306
-0.00183636
163.506
25.3601
-0.0221945
33.288
17.9119
-0.0104569
44.8645
91.751
40.2001
57.0683
3.55818
44.4298
-0.00270962
32.9476
8.83103
-0.00102795
2.39536
48.1542
0.19743
42.9142
-0.00302595
26.7251
7.92475
-0.000703916
3.08578
29.8605
-0.0010885
35.6192
-0.00203365
23.4018
10.6272
-0.000268818
3.56221
24.7487
11.317
28.7654
-0.00216236
20.825
5.50141
5.54938
14.1572
19.8999
18.5567
3.16058
15.71
5.5462
15.0195
11.622
18.5442
10.3286
18.7928
22.1082
-0.000748612
21.9645
-0.000753403
SCALARS v_tension_in_N double 1
LOOKUP_TABLE default
-0.015576
-0.0362623
-0.00161697
-0.00598837
-0.0134263
-0.043061
0.264449
-0.00696068
170.071
0.188943
-0.00871419
-0.0158365
13.52
63.8677
38.1657
717.913
26.5072
294.045
0.359864
-0.0275077
-0.00191452
78.9728
244.385
1040.35
193.465
-0.0196789
-0.0250647
287.741
62.5904
19.445
-0.0331358
3.81979
-0.0087977
59.5679
75.9489
10.3224
-0.00942329
-0.0221045
47.3604
-0.00555476
20.3038
92.7245
6.42467
-0.000546426
-0.00704843
39.9808
4.92215
44.7015
7.58334
54.8204
6.17096
0.772493
-0.00805916
36.9629
1.38683
41.2174
6.32713
49.1353
9.1063
3.48969
-0.0076911
32.5718
0.764871
38.4391
8.10818
36.3989
11.1372
10.1627
-0.00177444
21.7193
5.26282
24.6457
15.7165
13.1391
-0.000146807
16.4543
14.2353
16.1221
14.6624
6.73746
12.0665
16.5002
12.9925
16.6186
5.28545
-0.000711295
5.424
-0.000706294
SCALARS panel_no int 1
LOOKUP_TABLE default
1
1
1
1
1
1
1
1
2
2
2
2
2
2
2
2
2
3
3
3
3
3
3
3
3
4
4
4
4
4
4
4
4
5
5
6
6
6
7
7
8
8
9
9
10
10
11
11
12
12
13
13
14
14
15
15
16
16
17
17
18
18
19
19
20
20
21
21
22
22
23
23
24
24
25
26
26
27
27
28
29
29
30
30
31
31
32
32
SCALARS tri_element_no int 
LOOKUP_TABLE default
1
2
3
4
5
6
7
8
9
10
11
12
13
14
15
16
17
18
19
20
21
22
23
24
25
26
27
28
29
30
31
32
33
34
35
36
37
38
39
40
41
42
43
44
45
46
47
48
49
50
51
52
53
54
55
56
57
58
59
60
61
62
63
64
65
66
67
68
69
70
71
72
73
74
75
76
77
78
79
80
81
82
83
84
85
86
87
88
SCALARS solidity_diamond float 1
LOOKUP_TABLE default
0.04
0.05
0.04
0.05
0.03
0.04
0.04
0.06
0.02
0.03
0.02
0.04
0.06
0.03
0.02
0.03
0.02
0.03
0.05
0.03
0.06
0.03
0.03
0.04
0.03
0.04
0.03
0.04
0.03
0.04
0.05
0.05
0.06
0.10
0.10
0.06
0.09
0.06
0.09
0.09
0.10
0.10
0.17
0.16
0.12
0.12
0.18
0.17
0.16
0.16
0.23
0.21
0.17
0.15
0.24
0.22
0.21
0.21
0.31
0.26
0.21
0.18
0.29
0.26
0.24
0.23
0.46
0.83
0.51
0.31
0.58
0.43
0.36
0.78
1.00
0.83
1.00
0.95
1.00
1.00
1.00
1.00
1.00
1.00
1.00
1.00
1.00
1.00
