# vtk DataFile Version 2.0
rig or elements
ASCII

DATASET UNSTRUCTURED_GRID
POINTS 176 float
0.0000000E+00  0.0000000E+00  0.0000000E+00
1.8657590E+01  3.6704236E+00  -1.1527027E+01
1.8657590E+01  3.6704236E+00  -1.1527027E+01
3.7212182E+01  7.4618273E+00  -2.3180214E+01
3.7212182E+01  7.4618273E+00  -2.3180214E+01
5.5654752E+01  1.1380417E+01  -3.4968130E+01
5.5654752E+01  1.1380417E+01  -3.4968130E+01
7.3975269E+01  1.5432842E+01  -4.6900000E+01
7.3975269E+01  1.5432842E+01  -4.6900000E+01
9.2162574E+01  1.9626236E+01  -5.8985761E+01
9.2162574E+01  1.9626236E+01  -5.8985761E+01
1.1020415E+02  2.3968236E+01  -7.1236070E+01
1.1020415E+02  2.3968236E+01  -7.1236070E+01
1.2808605E+02  2.8467053E+01  -8.3662420E+01
1.2808605E+02  2.8467053E+01  -8.3662420E+01
1.4579260E+02  3.3131493E+01  -9.6277139E+01
1.4579260E+02  3.3131493E+01  -9.6277139E+01
1.6330619E+02  3.7971005E+01  -1.0909345E+02
1.6330619E+02  3.7971005E+01  -1.0909345E+02
1.6579021E+02  3.8957983E+01  -1.0773104E+02
1.6330619E+02  3.7971005E+01  -1.0909345E+02
1.6571573E+02  3.6855115E+01  -1.1049012E+02
1.6579021E+02  3.8957983E+01  -1.0773104E+02
1.6571573E+02  3.6855115E+01  -1.1049012E+02
1.6579021E+02  3.8957983E+01  -1.0773104E+02
1.7937050E+02  3.5975181E+01  -1.1101923E+02
1.7937050E+02  3.5975181E+01  -1.1101923E+02
1.9296448E+02  3.2794333E+01  -1.1405548E+02
1.9296448E+02  3.2794333E+01  -1.1405548E+02
2.0656620E+02  2.9401009E+01  -1.1681413E+02
2.0656620E+02  2.9401009E+01  -1.1681413E+02
2.2016731E+02  2.5778983E+01  -1.1926798E+02
2.2016731E+02  2.5778983E+01  -1.1926798E+02
2.3375633E+02  2.1909548E+01  -1.2138820E+02
2.3375633E+02  2.1909548E+01  -1.2138820E+02
2.4731779E+02  1.7770505E+01  -1.2314427E+02
2.4731779E+02  1.7770505E+01  -1.2314427E+02
2.6083093E+02  1.3334824E+01  -1.2450353E+02
1.6571573E+02  3.6855115E+01  -1.1049012E+02
1.7919228E+02  3.3753823E+01  -1.1409386E+02
1.7919228E+02  3.3753823E+01  -1.1409386E+02
1.9267061E+02  3.0572860E+01  -1.1762053E+02
1.9267061E+02  3.0572860E+01  -1.1762053E+02
2.0614995E+02  2.7309784E+01  -1.2106722E+02
2.0614995E+02  2.7309784E+01  -1.2106722E+02
2.1962945E+02  2.3962036E+01  -1.2443094E+02
2.1962945E+02  2.3962036E+01  -1.2443094E+02
2.3310813E+02  2.0526946E+01  -1.2770862E+02
2.3310813E+02  2.0526946E+01  -1.2770862E+02
2.4658490E+02  1.7001705E+01  -1.3089710E+02
2.4658490E+02  1.7001705E+01  -1.3089710E+02
2.6005849E+02  1.3383370E+01  -1.3399314E+02
2.6083093E+02  1.3334824E+01  -1.2450353E+02
2.6604042E+02  1.1313985E+01  -1.2489493E+02
2.6083093E+02  1.3334824E+01  -1.2450353E+02
2.6638036E+02  1.3395493E+01  -1.2525312E+02
2.6005849E+02  1.3383370E+01  -1.3399314E+02
2.6558306E+02  1.2511738E+01  -1.3368487E+02
2.6005849E+02  1.3383370E+01  -1.3399314E+02
2.6527422E+02  1.1340113E+01  -1.3388925E+02
2.6604042E+02  1.1313985E+01  -1.2489493E+02
2.7163026E+02  1.1447061E+01  -1.2520544E+02
2.6638036E+02  1.3395493E+01  -1.2525312E+02
2.7163026E+02  1.1447061E+01  -1.2520544E+02
2.6558306E+02  1.2511738E+01  -1.3368487E+02
2.7080645E+02  1.0492365E+01  -1.3369534E+02
2.6527422E+02  1.1340113E+01  -1.3388925E+02
2.7080645E+02  1.0492365E+01  -1.3369534E+02
2.6604042E+02  1.1313985E+01  -1.2489493E+02
2.8437492E+02  2.2109205E+00  -1.2613310E+02
2.6638036E+02  1.3395493E+01  -1.2525312E+02
2.8560458E+02  1.2428027E+01  -1.3068469E+02
2.6527422E+02  1.1340113E+01  -1.3388925E+02
2.8388788E+02  2.0000534E+00  -1.3336113E+02
2.6558306E+02  1.2511738E+01  -1.3368487E+02
2.8541635E+02  1.1827362E+01  -1.3117842E+02
2.8560458E+02  1.2428027E+01  -1.3068469E+02
2.8541635E+02  1.1827362E+01  -1.3117842E+02
2.8437492E+02  2.2109205E+00  -1.2613310E+02
2.8458846E+02  -1.1827411E+00  -1.2615462E+02
2.8388788E+02  2.0000534E+00  -1.3336113E+02
2.8350608E+02  -1.3778702E+00  -1.3343793E+02
3.4280775E+02  6.2720998E-01  -1.3092582E+02
3.6281746E+02  6.8147456E-01  -1.3092830E+02
3.8530053E+02  5.2461132E-01  -1.3092790E+02
3.8530051E+02  5.4460967E-01  -1.3092824E+02
3.8530053E+02  5.2461132E-01  -1.3092790E+02
3.8530051E+02  5.4460967E-01  -1.3092824E+02
2.6005849E+02  1.3383370E+01  -1.3399314E+02
2.6085975E+02  1.3383371E+01  -1.3582853E+02
3.6281746E+02  6.8147456E-01  -1.3092830E+02
3.8530051E+02  5.4460967E-01  -1.3092824E+02
0.0000000E+00  0.0000000E+00  0.0000000E+00
1.8662053E+01  -3.6420623E+00  -1.1528743E+01
1.8662053E+01  -3.6420623E+00  -1.1528743E+01
3.7221307E+01  -7.4043901E+00  -2.3183874E+01
3.7221307E+01  -7.4043901E+00  -2.3183874E+01
5.5668746E+01  -1.1293164E+01  -3.4973992E+01
5.5668746E+01  -1.1293164E+01  -3.4973992E+01
7.3994343E+01  -1.5315008E+01  -4.6908354E+01
7.3994343E+01  -1.5315008E+01  -4.6908354E+01
9.2186943E+01  -1.9477027E+01  -5.8996939E+01
9.2186943E+01  -1.9477027E+01  -5.8996939E+01
1.1023403E+02  -2.3786833E+01  -7.1250446E+01
1.1023403E+02  -2.3786833E+01  -7.1250446E+01
1.2812166E+02  -2.8252609E+01  -8.3680420E+01
1.2812166E+02  -2.8252609E+01  -8.3680420E+01
1.4583415E+02  -3.2883132E+01  -9.6299246E+01
1.4583415E+02  -3.2883132E+01  -9.6299246E+01
1.6335387E+02  -3.7687824E+01  -1.0912021E+02
1.6335387E+02  -3.7687824E+01  -1.0912021E+02
1.6569902E+02  -3.6803368E+01  -1.1076939E+02
1.6335387E+02  -3.7687824E+01  -1.0912021E+02
1.6585897E+02  -3.7908978E+01  -1.0748425E+02
1.6569902E+02  -3.6803368E+01  -1.1076939E+02
1.6585897E+02  -3.7908978E+01  -1.0748425E+02
1.6569902E+02  -3.6803368E+01  -1.1076939E+02
1.7915362E+02  -3.3657136E+01  -1.1441492E+02
1.7915362E+02  -3.3657136E+01  -1.1441492E+02
1.9260892E+02  -3.0424573E+01  -1.1798136E+02
1.9260892E+02  -3.0424573E+01  -1.1798136E+02
2.0606398E+02  -2.7102792E+01  -1.2146556E+02
2.0606398E+02  -2.7102792E+01  -1.2146556E+02
2.1951778E+02  -2.3688758E+01  -1.2486430E+02
2.1951778E+02  -2.3688758E+01  -1.2486430E+02
2.3296911E+02  -2.0179285E+01  -1.2817425E+02
2.3296911E+02  -2.0179285E+01  -1.2817425E+02
2.4641663E+02  -1.6571007E+01  -1.3139202E+02
2.4641663E+02  -1.6571007E+01  -1.3139202E+02
2.5985881E+02  -1.2860376E+01  -1.3451409E+02
1.6585897E+02  -3.7908978E+01  -1.0748425E+02
1.7944558E+02  -3.4827129E+01  -1.1065392E+02
1.7944558E+02  -3.4827129E+01  -1.1065392E+02
1.9304202E+02  -3.1566855E+01  -1.1359454E+02
1.9304202E+02  -3.1566855E+01  -1.1359454E+02
2.0664312E+02  -2.8116681E+01  -1.1628613E+02
2.0664312E+02  -2.8116681E+01  -1.1628613E+02
2.2024203E+02  -2.4463810E+01  -1.1870770E+02
2.2024203E+02  -2.4463810E+01  -1.1870770E+02
2.3382967E+02  -2.0593700E+01  -1.2083719E+02
2.3382967E+02  -2.0593700E+01  -1.2083719E+02
2.4739431E+02  -1.6489449E+01  -1.2265137E+02
2.4739431E+02  -1.6489449E+01  -1.2265137E+02
2.6092077E+02  -1.2131031E+01  -1.2412567E+02
2.5985881E+02  -1.2860376E+01  -1.3451409E+02
2.6501725E+02  -1.0682775E+01  -1.3433618E+02
2.5985881E+02  -1.2860376E+01  -1.3451409E+02
2.6533732E+02  -1.1744549E+01  -1.3416745E+02
2.6092077E+02  -1.2131031E+01  -1.2412567E+02
2.6646295E+02  -1.2163517E+01  -1.2492891E+02
2.6092077E+02  -1.2131031E+01  -1.2412567E+02
2.6614909E+02  -1.0172532E+01  -1.2458100E+02
2.6501725E+02  -1.0682775E+01  -1.3433618E+02
2.7049938E+02  -9.5762269E+00  -1.3404859E+02
2.6533732E+02  -1.1744549E+01  -1.3416745E+02
2.7049938E+02  -9.5762269E+00  -1.3404859E+02
2.6646295E+02  -1.2163517E+01  -1.2492891E+02
2.7174000E+02  -1.0289950E+01  -1.2487862E+02
2.6614909E+02  -1.0172532E+01  -1.2458100E+02
2.7174000E+02  -1.0289950E+01  -1.2487862E+02
2.6501725E+02  -1.0682775E+01  -1.3433618E+02
2.8350608E+02  -1.3778702E+00  -1.3343793E+02
2.6533732E+02  -1.1744549E+01  -1.3416745E+02
2.8513562E+02  -1.0477376E+01  -1.3160937E+02
2.6614909E+02  -1.0172532E+01  -1.2458100E+02
2.8458846E+02  -1.1827411E+00  -1.2615462E+02
2.6646295E+02  -1.2163517E+01  -1.2492891E+02
2.8547093E+02  -1.0904251E+01  -1.3102169E+02
2.8513562E+02  -1.0477376E+01  -1.3160937E+02
2.8547093E+02  -1.0904251E+01  -1.3102169E+02
2.5985881E+02  -1.2860376E+01  -1.3451409E+02
2.6066007E+02  -1.2860376E+01  -1.3634948E+02
3.4280824E+02  3.9409873E-01  -1.3092186E+02
3.6281764E+02  3.6494943E-01  -1.3092290E+02
3.6281764E+02  3.6494943E-01  -1.3092290E+02
3.8530053E+02  5.2461132E-01  -1.3092790E+02

CELLS 88 264
2 0 1
2 2 3
2 4 5
2 6 7
2 8 9
2 10 11
2 12 13
2 14 15
2 16 17
2 18 19
2 20 21
2 22 23
2 24 25
2 26 27
2 28 29
2 30 31
2 32 33
2 34 35
2 36 37
2 38 39
2 40 41
2 42 43
2 44 45
2 46 47
2 48 49
2 50 51
2 52 53
2 54 55
2 56 57
2 58 59
2 60 61
2 62 63
2 64 65
2 66 67
2 68 69
2 70 71
2 72 73
2 74 75
2 76 77
2 78 79
2 80 81
2 82 83
2 84 85
2 86 87
2 88 89
2 90 91
2 92 93
2 94 95
2 96 97
2 98 99
2 100 101
2 102 103
2 104 105
2 106 107
2 108 109
2 110 111
2 112 113
2 114 115
2 116 117
2 118 119
2 120 121
2 122 123
2 124 125
2 126 127
2 128 129
2 130 131
2 132 133
2 134 135
2 136 137
2 138 139
2 140 141
2 142 143
2 144 145
2 146 147
2 148 149
2 150 151
2 152 153
2 154 155
2 156 157
2 158 159
2 160 161
2 162 163
2 164 165
2 166 167
2 168 169
2 170 171
2 172 173
2 174 175

CELL_TYPES 88
3
3
3
3
3
3
3
3
3
3
3
3
3
3
3
3
3
3
3
3
3
3
3
3
3
3
3
3
3
3
3
3
3
3
3
3
3
3
3
3
3
3
3
3
3
3
3
3
3
3
3
3
3
3
3
3
3
3
3
3
3
3
3
3
3
3
3
3
3
3
3
3
3
3
3
3
3
3
3
3
3
3
3
3
3
3
3
3

CELL_DATA 88
SCALARS rig_tension_in_N float 1
LOOKUP_TABLE default
3.91e+04
3.87e+04
3.84e+04
3.80e+04
3.77e+04
3.73e+04
3.70e+04
3.66e+04
3.62e+04
7.66e+03
2.02e+04
-6.32e+03
6.38e+03
6.25e+03
6.12e+03
5.99e+03
5.87e+03
5.75e+03
5.64e+03
1.72e+04
1.71e+04
1.70e+04
1.68e+04
1.67e+04
1.66e+04
1.64e+04
5.03e+03
5.71e+02
4.98e+03
9.42e+03
5.29e+02
1.29e+02
2.05e+03
2.09e+03
-3.27e-02
2.12e+02
-1.73e-02
2.75e+03
6.07e+01
2.60e+03
1.76e+03
7.83e+02
1.02e+02
1.02e+02
2.13e+03
-7.35e-04
3.90e+04
3.87e+04
3.83e+04
3.79e+04
3.76e+04
3.72e+04
3.69e+04
3.65e+04
3.61e+04
1.95e+04
8.78e+03
-6.84e+03
1.63e+04
1.62e+04
1.61e+04
1.59e+04
1.58e+04
1.57e+04
1.55e+04
7.23e+03
7.10e+03
6.97e+03
6.85e+03
6.72e+03
6.61e+03
6.50e+03
7.37e+03
6.15e+03
6.18e+02
5.84e+03
1.01e+03
2.92e+03
1.05e+02
7.64e+02
-2.27e-02
3.06e+03
-2.95e-02
2.79e+02
2.31e+02
2.13e+03
7.53e+02
-7.35e-04
SCALARS element_no float 1
LOOKUP_TABLE default
1
1
1
1
1
1
1
1
1
2
3
4
5
5
5
5
5
5
5
6
6
6
6
6
6
6
7
8
9
10
11
12
13
14
15
16
17
18
19
20
21
22
23
24
25
26
27
27
27
27
27
27
27
27
27
28
29
30
31
31
31
31
31
31
31
32
32
32
32
32
32
32
33
34
35
36
37
38
39
40
41
42
43
44
45
46
47
48
