# vtk DataFile Version 2.0
rig or elements
ASCII

DATASET UNSTRUCTURED_GRID
POINTS 176 float
0.0000000E+00  0.0000000E+00  0.0000000E+00
1.8726829E+01  3.6424501E+00  -1.1423413E+01
1.8726829E+01  3.6424501E+00  -1.1423413E+01
3.7356731E+01  7.4030813E+00  -2.2966146E+01
3.7356731E+01  7.4030813E+00  -2.2966146E+01
5.5881366E+01  1.1287853E+01  -3.4636242E+01
5.5881366E+01  1.1287853E+01  -3.4636242E+01
7.4291476E+01  1.5303145E+01  -4.6442353E+01
7.4291476E+01  1.5303145E+01  -4.6442353E+01
9.2576786E+01  1.9455797E+01  -5.8393802E+01
9.2576786E+01  1.9455797E+01  -5.8393802E+01
1.1072579E+02  2.3753127E+01  -7.0500587E+01
1.1072579E+02  2.3753127E+01  -7.0500587E+01
1.2872569E+02  2.8202998E+01  -8.2773489E+01
1.2872569E+02  2.8202998E+01  -8.2773489E+01
1.4656214E+02  3.2813840E+01  -9.5224085E+01
1.4656214E+02  3.2813840E+01  -9.5224085E+01
1.6421904E+02  3.7594699E+01  -1.0786480E+02
1.6421904E+02  3.7594699E+01  -1.0786480E+02
1.6673034E+02  3.8084268E+01  -1.0629811E+02
1.6421904E+02  3.7594699E+01  -1.0786480E+02
1.6657930E+02  3.6622486E+01  -1.0944143E+02
1.6673034E+02  3.8084268E+01  -1.0629811E+02
1.6657930E+02  3.6622486E+01  -1.0944143E+02
1.6673034E+02  3.8084268E+01  -1.0629811E+02
1.8037959E+02  3.5163120E+01  -1.0934869E+02
1.8037959E+02  3.5163120E+01  -1.0934869E+02
1.9404527E+02  3.2082024E+01  -1.1215877E+02
1.9404527E+02  3.2082024E+01  -1.1215877E+02
2.0772302E+02  2.8832271E+01  -1.1470771E+02
2.0772302E+02  2.8832271E+01  -1.1470771E+02
2.2140701E+02  2.5404313E+01  -1.1697396E+02
2.2140701E+02  2.5404313E+01  -1.1697396E+02
2.3508946E+02  2.1787423E+01  -1.1893504E+02
2.3508946E+02  2.1787423E+01  -1.1893504E+02
2.4876032E+02  1.7969196E+01  -1.2056757E+02
2.4876032E+02  1.7969196E+01  -1.2056757E+02
2.6240667E+02  1.3934920E+01  -1.2184705E+02
1.6657930E+02  3.6622486E+01  -1.0944143E+02
1.8008127E+02  3.3565881E+01  -1.1298722E+02
1.8008127E+02  3.3565881E+01  -1.1298722E+02
1.9358626E+02  3.0429890E+01  -1.1645113E+02
1.9358626E+02  3.0429890E+01  -1.1645113E+02
2.0709351E+02  2.7212112E+01  -1.1982997E+02
2.0709351E+02  2.7212112E+01  -1.1982997E+02
2.2060220E+02  2.3910032E+01  -1.2312047E+02
2.2060220E+02  2.3910032E+01  -1.2312047E+02
2.3411133E+02  2.0521032E+01  -1.2631927E+02
2.3411133E+02  2.0521032E+01  -1.2631927E+02
2.4761983E+02  1.7042357E+01  -1.2942291E+02
2.4761983E+02  1.7042357E+01  -1.2942291E+02
2.6112645E+02  1.3471122E+01  -1.3242785E+02
2.6240667E+02  1.3934920E+01  -1.2184705E+02
2.6767660E+02  1.2072608E+01  -1.2221582E+02
2.6240667E+02  1.3934920E+01  -1.2184705E+02
2.6792878E+02  1.3201529E+01  -1.2242370E+02
2.6112645E+02  1.3471122E+01  -1.3242785E+02
2.6661490E+02  1.2417240E+01  -1.3205303E+02
2.6112645E+02  1.3471122E+01  -1.3242785E+02
2.6639475E+02  1.1575414E+01  -1.3222534E+02
2.6767660E+02  1.2072608E+01  -1.2221582E+02
2.7321032E+02  1.1359831E+01  -1.2269552E+02
2.6792878E+02  1.3201529E+01  -1.2242370E+02
2.7321032E+02  1.1359831E+01  -1.2269552E+02
2.6661490E+02  1.2417240E+01  -1.3205303E+02
2.7188930E+02  1.0540703E+01  -1.3190757E+02
2.6639475E+02  1.1575414E+01  -1.3222534E+02
2.7188930E+02  1.0540703E+01  -1.3190757E+02
2.6767660E+02  1.2072608E+01  -1.2221582E+02
2.8616950E+02  1.9587924E+00  -1.2343944E+02
2.6792878E+02  1.3201529E+01  -1.2242370E+02
2.8680155E+02  1.0822506E+01  -1.2860242E+02
2.6639475E+02  1.1575414E+01  -1.3222534E+02
2.8521448E+02  1.8534216E+00  -1.3134269E+02
2.6661490E+02  1.2417240E+01  -1.3205303E+02
2.8632949E+02  1.0594980E+01  -1.2920691E+02
2.8680155E+02  1.0822506E+01  -1.2860242E+02
2.8632949E+02  1.0594980E+01  -1.2920691E+02
2.8616950E+02  1.9587924E+00  -1.2343944E+02
2.8620497E+02  -1.4413132E+00  -1.2341883E+02
2.8521448E+02  1.8534216E+00  -1.3134269E+02
2.8520613E+02  -1.5470471E+00  -1.3134379E+02
3.4411527E+02  2.6897621E-01  -1.2822637E+02
3.6412906E+02  1.2429594E-01  -1.2837082E+02
3.8653361E+02  6.3993058E-02  -1.2817707E+02
3.8653360E+02  5.8433438E-02  -1.2819629E+02
3.8653361E+02  6.3993058E-02  -1.2817707E+02
3.8653360E+02  5.8433438E-02  -1.2819629E+02
2.6112645E+02  1.3471122E+01  -1.3242785E+02
2.6192772E+02  1.3471122E+01  -1.3426324E+02
3.6412906E+02  1.2429594E-01  -1.2837082E+02
3.8653360E+02  5.8433438E-02  -1.2819629E+02
0.0000000E+00  0.0000000E+00  0.0000000E+00
1.8730487E+01  -3.6271758E+00  -1.1422277E+01
1.8730487E+01  -3.6271758E+00  -1.1422277E+01
3.7364362E+01  -7.3720010E+00  -2.2963738E+01
3.7364362E+01  -7.3720010E+00  -2.2963738E+01
5.5893317E+01  -1.1240406E+01  -3.4632412E+01
5.5893317E+01  -1.1240406E+01  -3.4632412E+01
7.4308132E+01  -1.5238739E+01  -4.6436942E+01
7.4308132E+01  -1.5238739E+01  -4.6436942E+01
9.2598573E+01  -1.9373807E+01  -5.8386638E+01
9.2598573E+01  -1.9373807E+01  -5.8386638E+01
1.1075318E+02  -2.3652893E+01  -7.0491483E+01
1.1075318E+02  -2.3652893E+01  -7.0491483E+01
1.2875921E+02  -2.8083821E+01  -8.2762247E+01
1.2875921E+02  -2.8083821E+01  -8.2762247E+01
1.4660238E+02  -3.2674982E+01  -9.5210492E+01
1.4660238E+02  -3.2674982E+01  -9.5210492E+01
1.6426665E+02  -3.7435377E+01  -1.0784863E+02
1.6426665E+02  -3.7435377E+01  -1.0784863E+02
1.6663438E+02  -3.6498912E+01  -1.0943567E+02
1.6426665E+02  -3.7435377E+01  -1.0784863E+02
1.6676540E+02  -3.7840808E+01  -1.0623845E+02
1.6663438E+02  -3.6498912E+01  -1.0943567E+02
1.6676540E+02  -3.7840808E+01  -1.0623845E+02
1.6663438E+02  -3.6498912E+01  -1.0943567E+02
1.8013453E+02  -3.3430193E+01  -1.1297801E+02
1.8013453E+02  -3.3430193E+01  -1.1297801E+02
1.9363751E+02  -3.0281983E+01  -1.1643874E+02
1.9363751E+02  -3.0281983E+01  -1.1643874E+02
2.0714255E+02  -2.7051875E+01  -1.1981469E+02
2.0714255E+02  -2.7051875E+01  -1.1981469E+02
2.2064883E+02  -2.3737351E+01  -1.2310264E+02
2.2064883E+02  -2.3737351E+01  -1.2310264E+02
2.3415534E+02  -2.0335786E+01  -1.2629922E+02
2.3415534E+02  -2.0335786E+01  -1.2629922E+02
2.4766101E+02  -1.6844419E+01  -1.2940104E+02
2.4766101E+02  -1.6844419E+01  -1.2940104E+02
2.6116456E+02  -1.3260358E+01  -1.3240458E+02
1.6676540E+02  -3.7840808E+01  -1.0623845E+02
1.8041005E+02  -3.4886753E+01  -1.0927785E+02
1.8041005E+02  -3.4886753E+01  -1.0927785E+02
1.9407014E+02  -3.1769624E+01  -1.1207529E+02
1.9407014E+02  -3.1769624E+01  -1.1207529E+02
2.0774108E+02  -2.8480324E+01  -1.1461000E+02
2.0774108E+02  -2.8480324E+01  -1.1461000E+02
2.2141671E+02  -2.5008830E+01  -1.1686027E+02
2.2141671E+02  -2.5008830E+01  -1.1686027E+02
2.3508890E+02  -2.1343839E+01  -1.1880345E+02
2.3508890E+02  -2.1343839E+01  -1.1880345E+02
2.4874710E+02  -1.7472227E+01  -1.2041595E+02
2.4874710E+02  -1.7472227E+01  -1.2041595E+02
2.6237778E+02  -1.3378391E+01  -1.2167297E+02
2.6116456E+02  -1.3260358E+01  -1.3240458E+02
2.6642774E+02  -1.1349905E+01  -1.3220931E+02
2.6116456E+02  -1.3260358E+01  -1.3240458E+02
2.6664914E+02  -1.2183095E+01  -1.3203876E+02
2.6237778E+02  -1.3378391E+01  -1.2167297E+02
2.6790583E+02  -1.2604914E+01  -1.2212721E+02
2.6237778E+02  -1.3378391E+01  -1.2167297E+02
2.6764235E+02  -1.1504895E+01  -1.2206119E+02
2.6642774E+02  -1.1349905E+01  -1.3220931E+02
2.7191858E+02  -1.0291837E+01  -1.3190466E+02
2.6664914E+02  -1.2183095E+01  -1.3203876E+02
2.7191858E+02  -1.0291837E+01  -1.3190466E+02
2.6790583E+02  -1.2604914E+01  -1.2212721E+02
2.7317473E+02  -1.0738774E+01  -1.2246882E+02
2.6764235E+02  -1.1504895E+01  -1.2206119E+02
2.7317473E+02  -1.0738774E+01  -1.2246882E+02
2.6642774E+02  -1.1349905E+01  -1.3220931E+02
2.8520613E+02  -1.5470471E+00  -1.3134379E+02
2.6664914E+02  -1.2183095E+01  -1.3203876E+02
2.8636595E+02  -1.0266676E+01  -1.2926975E+02
2.6764235E+02  -1.1504895E+01  -1.2206119E+02
2.8620497E+02  -1.4413132E+00  -1.2341883E+02
2.6790583E+02  -1.2604914E+01  -1.2212721E+02
2.8671488E+02  -1.0556706E+01  -1.2861085E+02
2.8636595E+02  -1.0266676E+01  -1.2926975E+02
2.8671488E+02  -1.0556706E+01  -1.2861085E+02
2.6116456E+02  -1.3260358E+01  -1.3240458E+02
2.6196582E+02  -1.3260357E+01  -1.3423997E+02
3.4411510E+02  1.1941449E-01  -1.2822291E+02
3.6412906E+02  2.1278189E-01  -1.2806455E+02
3.6412906E+02  2.1278189E-01  -1.2806455E+02
3.8653361E+02  6.3993058E-02  -1.2817707E+02

CELLS 88 264
2 0 1
2 2 3
2 4 5
2 6 7
2 8 9
2 10 11
2 12 13
2 14 15
2 16 17
2 18 19
2 20 21
2 22 23
2 24 25
2 26 27
2 28 29
2 30 31
2 32 33
2 34 35
2 36 37
2 38 39
2 40 41
2 42 43
2 44 45
2 46 47
2 48 49
2 50 51
2 52 53
2 54 55
2 56 57
2 58 59
2 60 61
2 62 63
2 64 65
2 66 67
2 68 69
2 70 71
2 72 73
2 74 75
2 76 77
2 78 79
2 80 81
2 82 83
2 84 85
2 86 87
2 88 89
2 90 91
2 92 93
2 94 95
2 96 97
2 98 99
2 100 101
2 102 103
2 104 105
2 106 107
2 108 109
2 110 111
2 112 113
2 114 115
2 116 117
2 118 119
2 120 121
2 122 123
2 124 125
2 126 127
2 128 129
2 130 131
2 132 133
2 134 135
2 136 137
2 138 139
2 140 141
2 142 143
2 144 145
2 146 147
2 148 149
2 150 151
2 152 153
2 154 155
2 156 157
2 158 159
2 160 161
2 162 163
2 164 165
2 166 167
2 168 169
2 170 171
2 172 173
2 174 175

CELL_TYPES 88
3
3
3
3
3
3
3
3
3
3
3
3
3
3
3
3
3
3
3
3
3
3
3
3
3
3
3
3
3
3
3
3
3
3
3
3
3
3
3
3
3
3
3
3
3
3
3
3
3
3
3
3
3
3
3
3
3
3
3
3
3
3
3
3
3
3
3
3
3
3
3
3
3
3
3
3
3
3
3
3
3
3
3
3
3
3
3
3

CELL_DATA 88
SCALARS rig_tension_in_N float 1
LOOKUP_TABLE default
3.95e+04
3.91e+04
3.88e+04
3.84e+04
3.80e+04
3.77e+04
3.73e+04
3.70e+04
3.66e+04
8.87e+03
2.00e+04
-6.93e+03
7.31e+03
7.18e+03
7.05e+03
6.93e+03
6.81e+03
6.69e+03
6.58e+03
1.68e+04
1.67e+04
1.65e+04
1.64e+04
1.63e+04
1.61e+04
1.60e+04
5.22e+03
1.31e+03
4.53e+03
9.45e+03
2.83e+02
5.00e+02
2.03e+03
1.91e+03
-4.09e-03
4.52e+02
8.63e+02
2.15e+03
3.41e+02
2.08e+03
2.82e+03
1.19e+03
2.42e+02
2.42e+02
2.13e+03
-4.21e-03
3.95e+04
3.91e+04
3.88e+04
3.84e+04
3.80e+04
3.77e+04
3.73e+04
3.70e+04
3.66e+04
2.00e+04
8.82e+03
-6.91e+03
1.69e+04
1.67e+04
1.66e+04
1.65e+04
1.63e+04
1.62e+04
1.61e+04
7.27e+03
7.14e+03
7.01e+03
6.89e+03
6.77e+03
6.65e+03
6.54e+03
9.27e+03
4.76e+03
1.25e+03
5.24e+03
1.83e+03
2.12e+03
5.35e+02
2.90e+02
7.32e+02
2.32e+03
-1.95e-03
3.32e+02
2.73e+02
2.13e+03
1.18e+03
-4.21e-03
SCALARS element_no float 1
LOOKUP_TABLE default
1
1
1
1
1
1
1
1
1
2
3
4
5
5
5
5
5
5
5
6
6
6
6
6
6
6
7
8
9
10
11
12
13
14
15
16
17
18
19
20
21
22
23
24
25
26
27
27
27
27
27
27
27
27
27
28
29
30
31
31
31
31
31
31
31
32
32
32
32
32
32
32
33
34
35
36
37
38
39
40
41
42
43
44
45
46
47
48
