# vtk DataFile Version 2.0
trawl body or surfaces
ASCII

DATASET UNSTRUCTURED_GRID
POINTS 4918 float
2.6825654E+02  1.2824102E+01  -1.2193791E+02
2.7353452E+02  1.0981159E+01  -1.2226560E+02
2.8739276E+02  1.0937039E+01  -1.2263351E+02
3.0942993E+02  4.3943084E+00  -1.2571256E+02
3.0903816E+02  2.9015530E+00  -1.2906968E+02
2.8638183E+02  8.8078002E+00  -1.3072856E+02
2.7227932E+02  1.0485780E+01  -1.3136623E+02
2.6699742E+02  1.2339063E+01  -1.3153661E+02
2.8670537E+02  1.0514150E+01  -1.2864746E+02
2.8718562E+02  1.0674264E+01  -1.2802799E+02
2.6805114E+02  1.1983748E+01  -1.2173659E+02
2.8654686E+02  1.7584112E+00  -1.2296596E+02
2.8657154E+02  -1.6418436E+00  -1.2296722E+02
2.6805621E+02  -1.1893563E+01  -1.2173030E+02
2.7354079E+02  -1.0896387E+01  -1.2226424E+02
2.8739539E+02  -1.0875518E+01  -1.2261828E+02
3.0942041E+02  -4.2600813E+00  -1.2569929E+02
2.6679762E+02  1.1582805E+01  -1.3169630E+02
2.8555637E+02  1.7420807E+00  -1.3082014E+02
2.8554826E+02  -1.6583818E+00  -1.3082139E+02
2.6680002E+02  -1.1518324E+01  -1.3170181E+02
2.7227933E+02  -1.0409997E+01  -1.3136993E+02
2.8638490E+02  -8.6637015E+00  -1.3070259E+02
3.0903456E+02  -2.8007131E+00  -1.2907011E+02
2.6699836E+02  -1.2265671E+01  -1.3154316E+02
2.6826191E+02  -1.2736829E+01  -1.2193692E+02
2.8719233E+02  -1.0582268E+01  -1.2802121E+02
2.8670216E+02  -1.0427616E+01  -1.2863426E+02
3.1322645E+02  3.2297163E+00  -1.2579130E+02
3.1292210E+02  2.0781918E+00  -1.2882432E+02
3.1322440E+02  -3.1278202E+00  -1.2579401E+02
3.1292184E+02  -1.9815680E+00  -1.2882308E+02
3.1717730E+02  2.8129499E+00  -1.2606596E+02
3.1690758E+02  1.7606805E+00  -1.2855309E+02
3.1717470E+02  -2.7097667E+00  -1.2606945E+02
3.1690701E+02  -1.6574998E+00  -1.2855171E+02
3.2189579E+02  2.2328737E+00  -1.2644003E+02
3.2168503E+02  1.3978293E+00  -1.2824625E+02
3.2189105E+02  -2.1254738E+00  -1.2644880E+02
3.2168643E+02  -1.3008776E+00  -1.2824312E+02
3.2657600E+02  1.5533688E+00  -1.2698986E+02
3.2647462E+02  1.0374873E+00  -1.2797135E+02
3.2657575E+02  -1.4313984E+00  -1.2698640E+02
3.2647495E+02  -9.3396056E-01  -1.2797144E+02
3.3446524E+02  5.2122486E-01  -1.2747845E+02
3.3445595E+02  4.0729084E-01  -1.2771239E+02
3.3446580E+02  -4.1639381E-01  -1.2748175E+02
3.3445599E+02  -2.9880674E-01  -1.2771395E+02
3.4446687E+02  1.2410753E-01  -1.2759441E+02
3.4446689E+02  -1.5472377E-02  -1.2759681E+02
3.6448277E+02  -2.1556823E-02  -1.2764350E+02
3.6448281E+02  1.3673687E-01  -1.2763731E+02
3.8688413E+02  4.7800624E-02  -1.2761839E+02
3.8688413E+02  6.7782460E-02  -1.2761753E+02
0.0000000E+00  0.0000000E+00  0.0000000E+00
1.6452554E+02  3.7356257E+01  -1.0748695E+02
1.6703397E+02  3.7787906E+01  -1.0589878E+02
1.6688535E+02  3.6409434E+01  -1.0907963E+02
2.6277650E+02  1.3834123E+01  -1.2137687E+02
2.6151968E+02  1.3450959E+01  -1.3190174E+02
2.6232095E+02  1.3450961E+01  -1.3373713E+02
1.6453843E+02  -3.7315715E+01  -1.0748161E+02
1.6689666E+02  -3.6373793E+01  -1.0907952E+02
1.6704724E+02  -3.7731186E+01  -1.0588972E+02
2.6152281E+02  -1.3388390E+01  -1.3190816E+02
2.6278229E+02  -1.3745908E+01  -1.2137006E+02
2.6232407E+02  -1.3388388E+01  -1.3374355E+02
1.8749402E+01  3.6229867E+00  -1.1392668E+01
3.7404026E+01  7.3627097E+00  -2.2902354E+01
5.5955778E+01  1.1225012E+01  -3.4536909E+01
7.4395685E+01  1.5216146E+01  -4.6304778E+01
9.2713795E+01  1.9342810E+01  -5.8215058E+01
1.1089897E+02  2.3612175E+01  -7.0277503E+01
1.2893884E+02  2.8031936E+01  -8.2502633E+01
1.4681954E+02  3.2610347E+01  -9.4901742E+01
1.8069050E+02  3.4877379E+01  -1.0892704E+02
1.9436365E+02  3.1811538E+01  -1.1171759E+02
2.0804928E+02  2.8582250E+01  -1.1425048E+02
2.2174183E+02  2.5180624E+01  -1.1650492E+02
2.3543396E+02  2.1596716E+01  -1.1845928E+02
2.4911621E+02  1.7819062E+01  -1.2009109E+02
1.8039806E+02  3.3375365E+01  -1.1260393E+02
1.9391429E+02  3.0263405E+01  -1.1604571E+02
2.0743332E+02  2.7071252E+01  -1.1940178E+02
2.2095437E+02  2.3796497E+01  -1.2266883E+02
2.3447649E+02  2.0436637E+01  -1.2584350E+02
2.4799866E+02  1.6989042E+01  -1.2892233E+02
1.8750345E+01  -3.6191712E+00  -1.1392333E+01
3.7406003E+01  -7.3549296E+00  -2.2901633E+01
5.5958893E+01  -1.1213109E+01  -3.4535745E+01
7.4400053E+01  -1.5199952E+01  -4.6303108E+01
9.2719543E+01  -1.9322149E+01  -5.8212816E+01
1.1090624E+02  -2.3586857E+01  -7.0274613E+01
1.2894780E+02  -2.8001761E+01  -8.2499015E+01
1.4683037E+02  -3.2575102E+01  -9.4897307E+01
1.8040840E+02  -3.3336527E+01  -1.1260477E+02
1.9392360E+02  -3.0221175E+01  -1.1604750E+02
2.0744154E+02  -2.7025422E+01  -1.1940450E+02
2.2096144E+02  -2.3746849E+01  -1.2267249E+02
2.3448233E+02  -2.0382937E+01  -1.2584809E+02
2.4800319E+02  -1.6931039E+01  -1.2892783E+02
1.8070324E+02  -3.4815523E+01  -1.0891544E+02
1.9437566E+02  -3.1744732E+01  -1.1170416E+02
2.0806036E+02  -2.8510694E+01  -1.1423607E+02
2.2175179E+02  -2.5104534E+01  -1.1649052E+02
2.3544262E+02  -2.1516321E+01  -1.1844605E+02
2.4912347E+02  -1.7734614E+01  -1.2008033E+02
2.7539823E+02  1.1104409E+01  -1.2231087E+02
2.7691087E+02  1.1229823E+01  -1.2223900E+02
2.7839485E+02  1.1227531E+01  -1.2223687E+02
2.7991419E+02  1.1288777E+01  -1.2223699E+02
2.8141314E+02  1.1229278E+01  -1.2234049E+02
2.8290777E+02  1.1177018E+01  -1.2244813E+02
2.8440323E+02  1.1090714E+01  -1.2257264E+02
2.8589819E+02  1.0974579E+01  -1.2268765E+02
2.8885637E+02  1.0563542E+01  -1.2282622E+02
2.9006985E+02  1.0222495E+01  -1.2307422E+02
2.9127975E+02  9.8901273E+00  -1.2327619E+02
2.9248965E+02  9.5125484E+00  -1.2347467E+02
2.9369370E+02  9.1255260E+00  -1.2368970E+02
2.9489461E+02  8.7322447E+00  -1.2390262E+02
2.9609445E+02  8.3354289E+00  -1.2411791E+02
2.9729284E+02  7.9361992E+00  -1.2433975E+02
2.9849129E+02  7.5206445E+00  -1.2456091E+02
2.9969031E+02  7.1051728E+00  -1.2478110E+02
3.0089242E+02  6.6930192E+00  -1.2499414E+02
3.0210542E+02  6.3009107E+00  -1.2520002E+02
3.0334507E+02  5.9473674E+00  -1.2536220E+02
3.0460571E+02  5.6367376E+00  -1.2547365E+02
3.0587991E+02  5.3266042E+00  -1.2555818E+02
3.0715159E+02  5.0063676E+00  -1.2562250E+02
3.0842096E+02  4.6699403E+00  -1.2566742E+02
3.0945623E+02  4.4294703E+00  -1.2573456E+02
3.0959260E+02  4.7184916E+00  -1.2595169E+02
3.0973843E+02  5.0344679E+00  -1.2621249E+02
3.0988004E+02  5.3612541E+00  -1.2652472E+02
3.1000035E+02  5.7237544E+00  -1.2688439E+02
3.1008303E+02  6.0145702E+00  -1.2724367E+02
3.1012917E+02  6.1872052E+00  -1.2762925E+02
3.1011066E+02  6.0571252E+00  -1.2801680E+02
3.1003013E+02  5.7009154E+00  -1.2827993E+02
3.0989791E+02  5.2337427E+00  -1.2848641E+02
3.0971578E+02  4.6937189E+00  -1.2867130E+02
3.0951283E+02  4.1427222E+00  -1.2882571E+02
3.0931965E+02  3.6486433E+00  -1.2894069E+02
3.0915797E+02  3.2188297E+00  -1.2902019E+02
3.0749760E+02  3.2637300E+00  -1.2916658E+02
3.0621067E+02  3.5549129E+00  -1.2924907E+02
3.0492713E+02  3.8510300E+00  -1.2932961E+02
3.0364607E+02  4.1439420E+00  -1.2941176E+02
3.0237095E+02  4.4523451E+00  -1.2949604E+02
3.0111341E+02  4.7952158E+00  -1.2957701E+02
2.9986246E+02  5.1494544E+00  -1.2966332E+02
2.9861838E+02  5.5106166E+00  -1.2975798E+02
2.9737680E+02  5.8711182E+00  -1.2985331E+02
2.9613691E+02  6.2288749E+00  -1.2995412E+02
2.9489900E+02  6.5848514E+00  -1.3006137E+02
2.9365492E+02  6.9323720E+00  -1.3017194E+02
2.9241088E+02  7.2742212E+00  -1.3028235E+02
2.9116760E+02  7.6074745E+00  -1.3038855E+02
2.8991096E+02  7.9241004E+00  -1.3049915E+02
2.8865352E+02  8.2307746E+00  -1.3060268E+02
2.8739620E+02  8.5173910E+00  -1.3067805E+02
2.8455902E+02  8.9749779E+00  -1.3075511E+02
2.8303387E+02  9.1620752E+00  -1.3080842E+02
2.8153156E+02  9.3451709E+00  -1.3086970E+02
2.7997596E+02  9.5275926E+00  -1.3094350E+02
2.7844234E+02  9.7015764E+00  -1.3102078E+02
2.7690638E+02  9.8763273E+00  -1.3110270E+02
2.7536509E+02  1.0045779E+01  -1.3119064E+02
2.7382350E+02  1.0242947E+01  -1.3128016E+02
3.0695650E+02  3.4980071E+00  -1.2918801E+02
3.0795790E+02  3.3755830E+00  -1.2911155E+02
3.0311937E+02  4.3994252E+00  -1.2943196E+02
3.0412024E+02  4.2871035E+00  -1.2935186E+02
3.0512107E+02  4.1702077E+00  -1.2927245E+02
3.0612199E+02  4.0512114E+00  -1.2919330E+02
3.0712184E+02  3.9263790E+00  -1.2911421E+02
3.0812061E+02  3.7944289E+00  -1.2903614E+02
2.9936282E+02  5.4419058E+00  -1.2968543E+02
3.0035590E+02  5.3000273E+00  -1.2959664E+02
3.0134991E+02  5.1617189E+00  -1.2950957E+02
3.0234620E+02  5.0360790E+00  -1.2942414E+02
3.0334289E+02  4.9178329E+00  -1.2933873E+02
3.0433889E+02  4.7947730E+00  -1.2925451E+02
3.0533440E+02  4.6686839E+00  -1.2917141E+02
3.0632905E+02  4.5370697E+00  -1.2908911E+02
3.0732271E+02  4.3990521E+00  -1.2900797E+02
3.0831718E+02  4.2697626E+00  -1.2892688E+02
2.9564147E+02  6.5233431E+00  -1.2998343E+02
2.9663217E+02  6.3883880E+00  -1.2988255E+02
2.9762189E+02  6.2478307E+00  -1.2978026E+02
2.9861116E+02  6.1032211E+00  -1.2967858E+02
2.9959992E+02  5.9563999E+00  -1.2957763E+02
3.0058953E+02  5.8129509E+00  -1.2948157E+02
3.0158085E+02  5.6808386E+00  -1.2938903E+02
3.0257320E+02  5.5565562E+00  -1.2929884E+02
3.0356509E+02  5.4282336E+00  -1.2921088E+02
3.0455637E+02  5.2964745E+00  -1.2912326E+02
3.0554686E+02  5.1593749E+00  -1.2903666E+02
3.0653647E+02  5.0163226E+00  -1.2895128E+02
3.0752704E+02  4.8818430E+00  -1.2886580E+02
3.0851976E+02  4.7655711E+00  -1.2878094E+02
2.9190844E+02  7.5569041E+00  -1.3031557E+02
2.9289903E+02  7.4336016E+00  -1.3021781E+02
2.9388784E+02  7.3016906E+00  -1.3011442E+02
2.9487547E+02  7.1667378E+00  -1.3000450E+02
2.9586135E+02  7.0264157E+00  -1.2988798E+02
2.9684566E+02  6.8794094E+00  -1.2976750E+02
2.9782883E+02  6.7268614E+00  -1.2964574E+02
2.9881267E+02  6.5733335E+00  -1.2953102E+02
2.9979827E+02  6.4241759E+00  -1.2942636E+02
3.0078644E+02  6.2873185E+00  -1.2932979E+02
3.0177594E+02  6.1585169E+00  -1.2923673E+02
3.0276511E+02  6.0261390E+00  -1.2914582E+02
3.0375391E+02  5.8906949E+00  -1.2905577E+02
3.0474179E+02  5.7496333E+00  -1.2896514E+02
3.0572853E+02  5.6021721E+00  -1.2887334E+02
[...]
CELL_DATA 9720
SCALARS u_tension_in_N double 1
LOOKUP_TABLE default
45.412
45.412
44.6389
27.4027
44.6389
35.8016
72.9732
33.8968
43.8692
49.4743
49.4743
43.8692
42.4322
57.9384
4.03992
36.6432
3.13731
36.6432
41.1843
38.8885
39.95
36.4629
34.9813
41.1843
36.4629
42.4322
31.2823
38.8885
39.95
54.8594
72.2923
9.00802
50.6962
50.6962
79.3799
72.2724
59.5215
68.5401
59.5215
58.4108
58.4108
68.5401
48.687
47.245
48.687
44.8101
46.0227
44.8101
43.6046
47.245
46.0227
55.9498
55.9498
53.5209
53.5209
52.3151
52.3151
54.7321
54.7321
42.4028
56.97
43.6046
56.97
38.9259
37.4456
-0.00423202
27.0461
29.1567
29.1985
27.0461
26.8149
24.2254
24.028
26.8149
24.2254
29.1985
45.5735
34.9813
81.2898
21.5654
93.4956
75.0931
17.2795
17.2795
72.9284
19.8378
75.0931
22.7113
24.028
22.7113
38.9259
33.9408
37.7023
32.6783
33.9408
32.6783
50.9146
41.2069
41.2069
36.4802
40.0136
49.7185
37.7023
49.7185
36.4802
42.4028
35.0543
31.3993
28.1048
28.1048
16.4143
34.024
31.3993
35.0543
48.526
39.0222
37.4274
39.0222
32.1533
47.5366
34.024
37.4274
24.7209
40.0136
19.8378
48.526
13.9169
31.2823
50.9146
84.9321
189.279
73.9498
86.8739
73.9498
86.8739
89.3263
83.7557
73.0354
83.7557
67.9925
75.4013
68.7682
73.0354
68.7682
35.3085
65.8484
67.3113
63.3645
63.3645
64.6033
64.6033
67.9925
66.7277
65.6814
64.4312
63.1884
64.4312
65.6814
66.7277
62.3391
67.3113
65.8484
63.1884
75.4013
69.9023
64.2878
65.6716
69.9023
65.6716
54.5343
64.2878
53.315
62.877
61.4287
53.315
62.877
54.5343
64.6243
65.3368
61.4287
63.377
60.2033
61.9375
60.9155
61.9375
63.377
60.9155
50.9151
60.2033
49.7319
59.1916
57.7835
49.7319
59.1916
50.9151
57.7835
52.1091
64.6243
52.1091
61.9492
52.494
59.4963
61.1112
60.7216
59.6848
61.1112
59.6848
58.0916
60.7216
56.8954
59.7063
58.2893
56.8954
59.7063
58.0916
58.6735
59.4963
57.2603
57.2603
46.5475
46.5475
54.8602
55.8567
58.6735
55.8567
55.9035
57.0881
54.4945
55.8887
53.6686
55.8887
54.8602
57.0881
45.1618
58.2893
62.3391
54.4945
56.392
56.392
54.4159
55.4036
55.9035
55.4036
47.588
47.588
45.0794
46.4273
53.0409
45.0794
54.4159
46.4273
53.0409
48.5583
51.6764
54.9167
50.7042
53.7366
52.3666
52.3666
53.7366
51.6764
42.9814
42.9814
49.7382
49.7382
41.0693
41.6475
50.7042
41.6475
51.1952
43.932
54.9167
43.932
53.5032
61.9492
47.5366
48.5583
36.4248
95.9487
123.277
134.311
184.452
156.916
132.956
179.935
13.9169
92.7863
65.383
71.1924
123.277
71.1924
16.4143
11.9347
8.6238
11.9347
8.6238
12.5339
65.383
12.5339
121.618
24.7209
62.256
62.256
58.8921
123.643
117.008
7.22834
123.643
58.8921
8.04731
7.22834
7.23642
8.06513
9.00173
7.23642
8.06513
8.04731
58.3641
9.87327
121.618
9.87327
177.123
195.027
183.876
257.115
183.876
316.534
117.008
258.239
330.043
374.859
354.931
182.898
258.239
177.464
268.881
276.848
177.464
268.881
182.898
254.048
195.027
58.3641
113.992
57.6528
108.858
113.992
108.858
7.91783
12.5909
12.5909
56.597
16.1645
10.047
57.6528
10.047
56.597
9.00173
54.3718
104.04
52.9887
100.525
95.6627
52.9887
100.525
54.3718
12.1872
19.2373
19.9063
19.9063
13.7796
13.2392
19.2373
13.2392
52.0913
16.1645
104.04
12.1872
172.506
177.123
7.91783
36.4248
21.8969
28.5296
18.9576
21.8969
18.9576
53.6686
34.606
34.606
25.3948
31.2845
43.7759
28.5296
43.7759
25.3948
45.1618
22.863
16.8933
22.1127
15.6679
15.6679
22.863
41.0813
29.7462
28.7586
29.7462
38.9259
38.967
22.1127
38.967
15.359
31.2845
16.8933
41.0813
51.1952
52.6796
52.1259
50.7395
52.6796
52.1259
48.3873
48.3873
47.2343
50.2242
47.2343
40.8715
50.2242
40.8715
51.032
53.5032
48.8671
48.0051
48.3174
48.3174
46.7972
47.2669
48.0051
48.8671
40.616
46.1706
45.7861
46.1706
46.4639
40.4433
47.2669
45.7861
47.4804
51.032
50.7395
40.616
28.7586
32.1533
21.7
16.0347
22.0685
16.4252
16.0347
22.0685
38.9259
29.1953
40.1845
40.1845
30.8149
47.5137
29.1953
46.7972
30.8149
21.7
21.6387
21.6387
19.7854
16.0535
14.2695
31.0756
16.0535
19.7854
45.128
31.0756
44.9948
30.5595
28.4831
45.128
30.5595
43.3598
18.6423
43.3598
16.4252
44.9948
47.9475
47.5137
52.9135
51.7187
51.7187
47.9475
45.3051
47.1286
52.4736
47.1286
52.4736
46.0223
52.9135
45.3051
53.3794
46.4639
54.8196
54.8196
53.149
52.5748
50.7902
54.5855
52.5748
53.149
57.6479
54.5855
55.3639
52.8035
49.5729
57.6479
52.8035
53.9014
51.3142
53.9014
53.3794
46.0223
44.6944
47.4804
15.359
55.3639
52.1743
72.9284
41.0693
34.7889
34.7889
32.8057
32.8057
33.7921
33.7921
31.8307
70.4063
30.8686
29.922
31.8307
28.9962
28.0982
28.9962
29.922
30.8686
27.9478
24.1302
24.1302
27.9478
24.0895
24.0265
24.0325
24.0689
24.0432
24.0265
24.0432
24.1447
24.0325
24.0895
40.3604
40.3604
43.2742
43.2742
40.9113
40.9113
25.0209
24.1447
2.5177
27.2769
31.1769
31.1769
25.0209
27.2769
57.9965
24.0689
41.1773
69.673
105.175
68.5204
69.673
68.5204
261.763
105.175
223.936
107.167
101.967
223.936
107.167
261.763
65.0305
41.1773
57.9965
-0.00582294
891.695
103.529
103.529
24.544
31.4769
-0.0383831
37.0127
28.076
32.0561
63.4688
101.432
30.1726
210.145
28.0982
29.1458
27.4587
26.8046
25.6642
28.2587
28.1089
26.6945
24.9618
23.5549
25.9271
10.2448
20.2581
16.81
11.1142
9.2542
22.3867
8.17562
12.8079
5.56547
10.5108
8.62638
4.07459
11.5868
6.88559
2.67008
4.56291
-0.0150648
0.356051
-0.0185778
-0.0209049
2.51213
1.17821
6.90768
18.1697
13.6829
24.6202
30.3678
40.4433
13.7796
289.554
319.371
293.77
277.293
293.77
172.506
267.801
52.0913
91.9498
50.2955
18.9971
167.111
95.6627
267.801
18.9971
167.111
261.77
261.77
285.517
285.517
161.797
50.2955
88.2653
88.2653
152.954
82.7723
47.7815
161.797
18.6863
152.954
91.9498
47.7815
14.2695
13.0017
12.0355
12.014
13.0017
12.0355
28.4831
17.094
43.57
26.4853
26.4853
50.7902
17.094
44.6944
10.9364
18.6423
10.9364
19.4256
11.1921
11.1921
18.813
9.27589
19.4256
14.2578
43.57
24.448
24.448
12.0215
22.3794
42.2316
14.2578
49.1524
9.27589
12.014
18.6863
42.2316
46.6277
276.848
242.386
82.7723
77.3747
44.4579
77.3747
138.053
18.813
46.6277
10.8276
44.4579
41.7488
18.7721
41.7488
18.7814
18.7721
66.4045
18.6381
66.4045
138.053
18.6381
12.0215
7.8689
7.8689
11.5478
10.8276
9.70143
41.5132
19.9667
19.9667
7.49352
17.431
40.7309
9.70143
41.5132
6.79374
22.3794
6.79374
11.4034
5.91073
5.91073
9.54593
5.40322
11.4034
7.49352
40.147
14.5945
14.5945
3.6656
12.9051
39.3837
5.40322
40.147
4.47823
17.431
11.5478
40.7309
18.7814
242.386
39.3837
49.5729
49.0711
49.0711
48.0486
49.1524
46.7169
65.0305
49.0049
61.8288
49.0049
44.17
61.8288
46.7169
101.967
47.0989
52.1743
44.17
46.7757
45.2206
45.2477
46.7757
45.2206
97.5798
59.1488
46.241
41.5971
43.4191
59.1488
46.241
94.3159
56.3432
47.0989
48.0486
97.5798
101.432
200.579
98.8304
191.119
200.579
98.8304
28.076
35.9536
29.1198
26.8805
26.8805
28.1089
35.9536
30.3678
95.3697
37.0127
95.3697
191.119
34.0297
181.283
90.9788
34.0297
90.5907
25.6678
26.5804
27.8904
27.8904
24.4276
26.7024
25.3117
25.6678
25.3117
32.1412
29.1198
94.3159
26.5804
41.5971
210.145
43.0235
43.0235
38.4254
40.6701
43.6758
38.4254
56.3432
40.2625
53.0385
53.0385
36.4471
85.96
40.2625
90.5907
35.1766
43.4191
35.1766
41.8849
38.2924
38.2924
41.9404
31.7828
41.8849
36.4471
49.1489
49.1489
32.8024
32.8024
30.0614
45.4326
31.7828
80.5899
37.8203
40.6701
43.6758
85.96
90.9788
170.666
85.2572
158.765
170.666
85.2572
24.4276
30.5765
25.5678
23.1391
23.1391
24.0696
30.5765
26.7024
80.6639
32.1412
80.6639
158.765
27.651
146.678
75.2177
27.651
75.427
21.8314
22.8611
24.5418
24.5418
20.7002
23.5191
21.7252
21.8314
21.7252
24.7811
25.5678
80.5899
22.8611
45.4326
181.283
45.2477
24.0696
40.1982
51.3142
37.3147
9.54593
7.95741
3.6656
2.53768
2.14152
12.9051
7.95741
4.47823
15.4102
40.1982
2.53768
1.2198
4.97126
15.4102
4.97126
12.0059
1.31753
1.31753
1.53485
1.53485
11.8809
1.2198
11.8809
12.0293
2.14152
12.0059
37.8203
41.4355
43.1413
42.4245
41.4355
43.1413
30.6323
30.0614
30.6323
29.5524
29.6007
43.1537
38.5784
43.1537
38.5784
41.9404
29.5524
39.3777
44.2209
43.467
44.6075
39.3777
44.2209
29.1445
42.0134
28.7066
28.7066
28.0479
27.2385
40.9742
29.1445
40.9742
39.4485
29.6007
42.4245
42.0134
0.213484
37.3147
12.0293
12.7525
2.62821
2.62821
0.213484
12.7525
44.6075
44.5077
44.3963
44.3963
46.1757
39.1321
44.5077
39.4485
46.1757
43.467
43.8544
13.6715
49.7291
49.7291
37.9532
43.8544
36.3043
43.1056
49.729
49.729
43.1056
37.9532
13.6715
39.1321
26.1313
26.1313
20.595
23.5662
36.3043
23.5662
39.2379
24.8044
22.3644
24.8044
19.6605
36.4975
20.595
22.3644
38.5963
27.2385
18.7394
14.7196
4.90031
51.7581
4.90031
51.7581
14.7196
19.6605
17.1364
0.721841
11.3382
11.3382
-0.0662947
17.1364
18.7394
38.5963
0.721841
28.0479
39.2379
146.678
72.0612
136.801
70.1038
72.0612
70.1038
69.3793
136.801
64.677
129.556
123.22
64.677
129.556
69.3793
68.273
75.2177
65.5203
65.5203
61.666
32.763
68.273
61.666
60.189
116.881
109.397
109.397
52.3229
55.7502
116.881
55.7502
55.8542
123.22
36.4975
60.189
20.7002
23.7042
19.5669
21.8535
23.7042
21.8535
20.5546
22.0354
18.9709
18.9709
20.2477
22.0354
19.5669
19.2503
20.9315
23.5191
17.727
18.7905
15.2636
18.7905
48.7025
16.4765
20.9315
15.2636
20.2477
18.9363
14.5788
14.5788
15.6889
17.5242
16.4765
18.9363
14.7479
17.727
52.3229
17.5242
99.7646
24.7811
99.7646
28.953
49.6449
26.5663
28.953
26.5663
14.7479
88.0885
88.0885
45.7128
78.2576
45.8568
49.6449
45.8568
45.7128
48.7025
45.8106
24.9768
48.5037
23.4873
48.5037
23.4873
45.8106
44.9448
48.1129
73.8472
73.8472
78.2576
24.9768
44.9448
15.2184
16.0479
18.2584
18.6349
16.0479
18.6349
15.6889
16.242
22.2306
23.4604
19.3028
19.3028
18.2584
16.242
23.4604
15.2184
22.2895
22.2895
48.1129
22.2306
55.8542
32.763
75.427
20.5546
25.6642
25.7735
24.0977
24.5026
25.7735
24.0977
23.5549
23.5649
22.2252
22.2252
21.9878
21.0442
23.5649
22.3867
23.0578
24.6202
23.0578
23.2574
21.7737
22.0428
23.2574
22.0428
20.6198
20.6828
20.6828
20.5083
19.3897
19.2803
21.7737
20.6198
18.2366
21.9878
24.5026
19.2803
16.81
18.894
18.894
19.9685
21.0442
15.4083
12.8079
12.2459
12.2459
13.9843
10.7774
11.0963
15.4083
11.0963
17.5166
13.6829
17.5166
18.6324
16.1314
16.1314
16.9965
12.538
18.6324
13.9843
9.61031
9.27411
9.27411
11.0542
7.71708
8.08625
12.538
8.08625
14.7281
10.7774
19.9685
9.61031
20.5083
20.2581
18.9776
20.8905
18.0218
19.7199
19.7199
18.9776
18.2366
18.4248
16.826
18.4248
16.826
16.6054
18.0218
16.6054
17.7983
19.3897
16.36
17.896
15.8497
16.4662
17.896
15.8497
14.8069
16.36
13.3839
14.9662
13.2721
14.8069
14.9662
15.5643
14.6314
17.7983
20.8905
13.3839
14.7281
15.9475
12.9772
14.251
15.9475
12.9772
7.71708
9.82317
6.08149
6.08149
7.88543
5.15194
9.82317
6.50608
11.8069
11.0542
14.251
14.1468
12.4875
12.4875
12.0761
9.97425
14.1468
11.8069
4.01034
5.9692
5.9692
8.15202
4.0789
2.05642
9.97425
4.01034
10.7435
7.88543
15.5643
2.05642
0.491545
16.9965
19.2503
6.50608
10.5108
10.3969
9.04532
8.91279
10.3969
8.91279
6.90768
7.14001
7.14001
7.54519
5.61789
5.13829
9.04532
5.13829
7.54519
8.62638
5.73758
7.39302
4.44729
5.82202
5.82202
5.73758
3.60443
4.34611
2.54453
4.34611
2.87646
2.35799
4.44729
2.54453
3.88545
5.61789
7.39302
3.60443
2.51213
3.3013
0.887687
1.81616
3.3013
0.887687
-0.0209049
-0.00665707
-0.0188137
-0.0185778
-0.0169446
-0.00665707
0.146433
0.356051
-0.0169446
0.507537
0.507537
1.18255
0.308458
-0.032654
1.81616
-0.032654
-0.0203616
-0.0188137
-0.0203616
-0.0257508
-0.011763
-0.0185153
-0.0257508
-0.00410525
0.146433
2.35799
1.18255
4.56291
2.87646
3.7454
1.62409
2.20086
3.7454
1.38273
0.308458
0.901876
0.901876
0.896551
0.759285
0.598234
1.38273
0.598234
2.20086
3.88545
1.62409
0.411913
0.411913
-0.037455
-0.0461788
-0.0118182
1.83098
-0.0118182
0.759285
-0.0334553
-0.0493525
-0.0493525
-0.053146
-0.0638018
-0.0334553
0.527158
-0.0546947
0.896551
1.83098
0.527158
-0.011763
0.325886
0.281955
0.213747
0.325886
0.281955
-0.00125014
-0.00125014
0.386779
2.06225
-0.00243613
-0.0011461
-0.0163152
0.833808
-0.0163152
0.213747
-0.072716
-0.0861029
-0.0875763
-0.0724714
0.833808
-0.081631
-0.0773414
-0.0638018
-0.0127907
-0.00410525
5.15194
12.0761
11.5868
13.2721
15.0203
13.078
13.3262
15.0203
13.078
11.9033
11.9033
10.9137
12.2589
10.9137
10.302
12.2589
10.302
11.8024
14.6314
10.9563
14.0617
13.1898
17.371
14.0617
13.1898
9.4973
9.80146
12.1022
12.1022
11.8127
9.80146
10.9563
8.56706
15.7217
11.8024
13.3262
9.4973
8.15202
9.56162
6.6358
8.79906
9.56162
8.79906
0.491545
2.6836
2.6836
5.93725
3.49687
-0.0233568
6.6358
-0.0233568
5.93725
4.0789
8.41317
8.41317
6.4048
10.6861
10.6861
6.19062
11.6804
6.19062
-0.0108117
0.315689
5.49253
5.49253
6.4048
0.315689
3.49687
8.56706
-0.0108117
11.8127
10.7435
15.7041
21.1783
21.1783
14.1861
14.1861
15.7217
15.7041
11.6804
17.371
-0.037455
-0.0327126
-0.0301797
-0.0229501
-0.0327126
-0.0301797
-0.0546947
-0.0284643
-0.0281185
-0.0061757
-0.0299812
-0.0284643
-0.00717084
-0.0461788
-0.0208011
0.0611435
-0.0235884
-0.00696444
-0.0229501
-0.0567314
-0.0127907
16.4662
26.8046
-0.0136026
-0.019189
-0.00790476
-0.0227862
-0.000591822
-0.0057956
-0.0112668
-0.012968
18.3934
0.647352
-0.0197364
-0.00578229
-0.0486135
-0.0311835
-0.00578229
0.26993
-0.000925243
-0.0153406
0.26993
-0.00050808
-0.00050808
0.80092
0.164131
1.52685
0.691208
1.56775
0.80092
0.691208
0.164131
0.838876
-0.0536675
0.358932
-0.000925243
1.66533
0.838876
2.45315
1.16926
1.13544
2.45315
0.358932
1.66533
2.26467
2.26467
3.10313
2.30345
3.92491
3.05806
4.10352
3.10313
3.05806
2.30345
3.24064
1.56775
1.16926
1.52685
3.92491
-0.0654869
-0.00587121
-0.0531114
-0.0523308
0.253839
-0.0571063
-0.0581956
-0.0186485
-0.0573492
-0.0523308
-0.0650424
-0.00424302
-0.00587121
-0.012742
0.776123
1.53466
0.584359
1.29038
0.776123
0.584359
1.53466
0.784126
-0.00424302
0.768026
-0.00139193
1.70622
1.70622
3.02625
1.94302
0.768026
0.784126
2.20109
-0.0186485
-0.000591822
1.94302
0.382457
-0.000667947
-0.0253301
-0.000662503
1.48749
-0.0253301
1.27287
1.25571
-0.00139193
1.48749
150.274
1.25571
150.274
234.06
144.133
6.58412
144.133
404.474
6.58412
404.474
3.87522
500.445
14.9122
2.99044
7.0581
14.9122
7.0581
4.92709
10.3016
24.2476
2.99044
24.2476
147.999
147.999
389.582
394.403
386.467
153.52
159.218
386.467
153.52
389.582
32.0701
3.87522
1.27287
394.403
3.02625
2.76815
2.04368
3.01955
2.76815
3.01955
2.84909
3.88145
3.88521
2.04368
3.88521
4.22561
4.22561
6.8221
4.92709
8.60949
5.33778
6.78588
8.60949
5.33778
6.8221
4.78985
2.20109
3.6676
3.6676
4.89246
3.88145
5.76529
4.4724
5.57228
5.76529
4.4724
4.89246
5.72125
5.72125
8.29685
6.78588
9.54557
6.71306
8.07741
8.29685
6.71306
10.3251
6.64396
4.78985
2.84909
9.54557
13.1158
13.1158
39.1085
32.0701
45.3016
16.1316
19.4283
45.3016
16.1316
39.1085
163.582
163.582
382.408
384.122
379.885
167.251
170.471
379.885
167.251
382.408
50.8776
159.218
12.1113
12.1113
22.7791
19.4283
24.9752
13.7628
16.0217
24.9752
13.7628
22.7791
170.471
55.9611
172.03
376.346
172.03
59.1153
168.255
370.952
55.9611
370.952
59.1153
50.8776
10.3251
376.346
10.8935
10.3016
1.29038
384.122
4.72388
10.4057
16.9154
1.13544
31.6128
18.9494
16.9154
37.767
18.9713
16.7128
86.2147
16.7128
2.94609
18.9494
2.2845
2.2845
4.30374
3.24064
5.19851
3.48328
4.77036
5.19851
3.48328
4.30374
4.72388
4.9485
5.68591
5.57228
5.68591
6.05939
6.68392
6.70858
4.9485
6.70858
6.05939
4.10352
6.24346
22.8168
6.16548
6.24346
6.16548
22.9572
7.58575
7.43988
22.8168
7.43988
7.07416
7.07416
7.82812
6.68392
8.8274
7.97978
9.15725
7.82812
7.97978
7.58505
8.46593
4.77036
18.9713
8.8274
6.64396
62.3107
-0.00432569
61.1136
22.7546
22.7546
23.2138
22.9572
23.8498
26.7374
32.8176
23.8498
26.7374
23.2138
66.454
-0.000777147
43.9775
-0.0117064
45.7085
183.491
-0.0117064
-0.000777147
29.7204
29.7204
27.3908
25.0957
28.8341
27.5081
26.0673
28.8341
27.5081
27.3908
14.8829
32.8176
25.0957
9.03459
9.03459
9.74971
8.46593
11.1117
10.7746
13.4241
11.1117
10.7746
9.74971
10.1283
10.1283
10.9172
9.86583
12.0964
11.3758
13.1062
10.9172
11.3758
9.86583
12.9376
9.15725
18.3057
18.3057
16.3501
12.9376
18.5368
21.5995
22.6389
18.5368
21.5995
16.3501
15.9887
15.9887
16.2678
13.5928
17.7492
17.719
17.9519
16.2678
17.719
13.5928
19.1846
13.1062
13.4241
12.0964
28.7776
7.58575
17.7492
7.56065
7.56065
9.50794
10.8935
8.81087
8.81087
8.47466
10.6529
7.58505
9.50794
12.3329
12.3329
18.4213
28.1004
14.1432
14.1432
11.9759
20.663
10.6529
18.4213
9.91947
16.0217
9.49481
9.49481
11.1754
11.9759
12.1622
10.5519
11.6194
12.1622
10.5519
11.1754
15.8104
15.8104
13.1475
22.9227
17.4922
17.4922
14.6629
25.0044
13.1475
22.9227
19.2103
9.91947
8.47466
20.663
63.8529
28.1004
31.1442
63.8529
34.3499
34.3499
71.9886
68.2173
31.1442
68.2173
168.869
168.869
350.24
356.604
343.377
169.68
170.419
343.377
169.68
350.24
71.9886
168.255
75.9319
37.4906
40.7592
75.9319
40.7592
27.3035
43.77
79.247
37.4906
79.247
170.182
170.182
328.237
336.1
319.549
169.598
168.96
319.549
169.598
328.237
82.035
170.419
25.0044
336.1
14.6629
8.07741
13.3163
13.3163
12.8211
16.2014
14.608
14.608
14.3567
17.5875
12.8211
16.2014
20.7956
20.7956
29.8156
27.3035
22.9123
22.9123
19.631
32.217
17.5875
29.8156
16.2681
19.2103
17.3175
17.3175
19.7723
16.2681
21.4598
18.8113
18.8344
21.4598
18.8113
19.7723
24.3237
24.3237
32.496
25.7189
35.8521
26.6692
26.7769
32.496
26.6692
25.7189
21.5154
19.631
14.3567
35.8521
46.5372
46.5372
85.0311
82.035
49.9588
49.9588
35.6732
87.6816
32.217
85.0311
167.502
167.502
301.09
310.568
166.282
166.282
91.644
290.562
87.6816
301.09
54.4535
168.96
46.2635
46.2635
70.511
54.4535
77.3577
51.3101
51.4524
77.3577
51.3101
70.511
114.37
114.37
189.495
164.547
191.047
121.619
117.918
189.495
121.619
164.547
76.5918
91.644
35.6732
191.047
36.0349
43.77
11.6194
310.568
17.9243
18.587
356.604
690.492
690.934
695.754
688.681
708.143
688.681
690.492
722.479
736.426
708.143
695.754
750.699
765.437
736.426
780.11
705.347
765.437
750.699
722.479
680.189
653.024
680.189
705.347
625.67
597.857
625.67
569.057
540.23
597.857
653.024
510.807
540.23
478.888
510.807
1462.26
569.057
478.888
435.539
275.426
283.395
435.539
269.499
269.499
272.602
329.408
283.395
329.408
4.54026
-0.00279525
-0.00279525
9.67456
254.4
10.7713
9.67456
272.602
252.185
275.426
3.82101
780.11
290.562
180.738
26.0673
161.955
18.0622
184.776
89.6806
70.9076
18.0622
28.7776
24.7506
27.9643
22.6389
22.7993
27.9643
23.468
22.7993
24.7506
19.1846
14.3995
17.9519
14.3995
54.7827
13.6982
23.468
13.6982
85.4741
22.8552
27.2222
22.5976
27.2222
26.831
19.1088
26.831
23.3303
27.6655
22.5414
22.8552
22.5976
23.3303
89.6806
22.5414
17.9243
17.77
17.6875
18.8344
17.77
18.9886
17.6305
17.6875
19.1088
18.5513
26.7769
21.1981
26.4223
36.0349
21.1981
18.4227
21.0519
26.4223
18.5513
35.623
17.562
21.5154
17.562
19.0267
17.7412
18.4227
17.7412
19.9858
18.6249
17.7444
19.0267
17.7444
26.2403
21.0519
18.5311
26.2403
26.3526
21.1903
21.1903
35.3588
18.5311
35.3588
18.5174
17.6305
18.9886
35.623
23.7054
51.4524
28.4603
-0.0285265
27.6655
86.3774
36.0876
23.7054
31.4414
28.7802
19.9858
28.7802
36.453
36.453
23.602
31.4414
23.602
18.6249
28.447
88.0912
33.2434
-7.03052e-05
74.1454
-0.00175488
33.2434
28.447
19.3376
21.8394
21.463
19.3376
21.463
25.8193
24.956
22.3053
21.8394
22.3053
26.3526
21.936
27.1232
35.4048
27.1232
25.3436
31.5613
36.1894
21.936
36.1894
25.3436
18.5174
25.6991
29.2153
27.6365
25.6991
27.6365
30.4849
28.2835
27.8677
29.2153
27.8677
29.2657
29.2657
36.772
31.5613
40.3085
31.9955
32.0301
36.772
31.9955
42.3487
28.1905
24.956
25.8193
40.3085
30.4849
70.5279
35.4048
76.5918
50.6224
74.8677
74.8677
50.0675
113.867
50.6224
117.918
252.185
172.713
240.934
254.4
172.713
111.021
167.202
240.934
113.867
243.533
73.6344
180.738
111.021
49.8827
72.8713
167.202
50.5299
50.5299
72.7684
72.8713
49.8827
108.87
233.164
233.164
162.702
236.26
162.702
106.586
156.149
226.473
108.87
226.473
215.089
73.6344
50.0675
243.533
8.8208
8.8208
3.17936
4.00948
6.12865
6.12865
229.277
2.45542
236.26
3.17936
2.84831
2.84831
11.3234
18.7259
2.04109
2.04109
2.45542
4.05399
4.00948
1.27057
4.05399
1.62042
1.51159
1.62042
2.2419
1.00028
1.27057
217.114
0.873381
6.01934
0.873381
5.87552
13.1539
4.13471
5.87552
0.688024
0.840299
1.51159
229.277
72.7684
10.7713
84.9078
59.5804
59.5804
106.586
84.9078
71.0377
100.375
120.672
50.1872
120.672
215.089
167.848
217.055
217.114
217.055
179.851
215.247
206.234
167.848
206.234
137.685
156.149
71.0377
55.6543
79.135