# vtk DataFile Version 2.0
rig or elements
ASCII

DATASET UNSTRUCTURED_GRID
POINTS 176 float
0.0000000E+00  0.0000000E+00  0.0000000E+00
1.8749402E+01  3.6229867E+00  -1.1392668E+01
1.8749402E+01  3.6229867E+00  -1.1392668E+01
3.7404026E+01  7.3627097E+00  -2.2902354E+01
3.7404026E+01  7.3627097E+00  -2.2902354E+01
5.5955778E+01  1.1225012E+01  -3.4536909E+01
5.5955778E+01  1.1225012E+01  -3.4536909E+01
7.4395685E+01  1.5216146E+01  -4.6304778E+01
7.4395685E+01  1.5216146E+01  -4.6304778E+01
9.2713795E+01  1.9342810E+01  -5.8215058E+01
9.2713795E+01  1.9342810E+01  -5.8215058E+01
1.1089897E+02  2.3612175E+01  -7.0277503E+01
1.1089897E+02  2.3612175E+01  -7.0277503E+01
1.2893884E+02  2.8031936E+01  -8.2502633E+01
1.2893884E+02  2.8031936E+01  -8.2502633E+01
1.4681954E+02  3.2610347E+01  -9.4901742E+01
1.4681954E+02  3.2610347E+01  -9.4901742E+01
1.6452554E+02  3.7356257E+01  -1.0748695E+02
1.6452554E+02  3.7356257E+01  -1.0748695E+02
1.6703397E+02  3.7787906E+01  -1.0589878E+02
1.6452554E+02  3.7356257E+01  -1.0748695E+02
1.6688535E+02  3.6409434E+01  -1.0907963E+02
1.6703397E+02  3.7787906E+01  -1.0589878E+02
1.6688535E+02  3.6409434E+01  -1.0907963E+02
1.6703397E+02  3.7787906E+01  -1.0589878E+02
1.8069050E+02  3.4877379E+01  -1.0892704E+02
1.8069050E+02  3.4877379E+01  -1.0892704E+02
1.9436365E+02  3.1811538E+01  -1.1171759E+02
1.9436365E+02  3.1811538E+01  -1.1171759E+02
2.0804928E+02  2.8582250E+01  -1.1425048E+02
2.0804928E+02  2.8582250E+01  -1.1425048E+02
2.2174183E+02  2.5180624E+01  -1.1650492E+02
2.2174183E+02  2.5180624E+01  -1.1650492E+02
2.3543396E+02  2.1596716E+01  -1.1845928E+02
2.3543396E+02  2.1596716E+01  -1.1845928E+02
2.4911621E+02  1.7819062E+01  -1.2009109E+02
2.4911621E+02  1.7819062E+01  -1.2009109E+02
2.6277650E+02  1.3834123E+01  -1.2137687E+02
1.6688535E+02  3.6409434E+01  -1.0907963E+02
1.8039806E+02  3.3375365E+01  -1.1260393E+02
1.8039806E+02  3.3375365E+01  -1.1260393E+02
1.9391429E+02  3.0263405E+01  -1.1604571E+02
1.9391429E+02  3.0263405E+01  -1.1604571E+02
2.0743332E+02  2.7071252E+01  -1.1940178E+02
2.0743332E+02  2.7071252E+01  -1.1940178E+02
2.2095437E+02  2.3796497E+01  -1.2266883E+02
2.2095437E+02  2.3796497E+01  -1.2266883E+02
2.3447649E+02  2.0436637E+01  -1.2584350E+02
2.3447649E+02  2.0436637E+01  -1.2584350E+02
2.4799866E+02  1.6989042E+01  -1.2892233E+02
2.4799866E+02  1.6989042E+01  -1.2892233E+02
2.6151968E+02  1.3450959E+01  -1.3190174E+02
2.6277650E+02  1.3834123E+01  -1.2137687E+02
2.6805114E+02  1.1983748E+01  -1.2173659E+02
2.6277650E+02  1.3834123E+01  -1.2137687E+02
2.6825654E+02  1.2824102E+01  -1.2193791E+02
2.6151968E+02  1.3450959E+01  -1.3190174E+02
2.6699742E+02  1.2339063E+01  -1.3153661E+02
2.6151968E+02  1.3450959E+01  -1.3190174E+02
2.6679762E+02  1.1582805E+01  -1.3169630E+02
2.6805114E+02  1.1983748E+01  -1.2173659E+02
2.7353452E+02  1.0981159E+01  -1.2226560E+02
2.6825654E+02  1.2824102E+01  -1.2193791E+02
2.7353452E+02  1.0981159E+01  -1.2226560E+02
2.6699742E+02  1.2339063E+01  -1.3153661E+02
2.7227932E+02  1.0485780E+01  -1.3136623E+02
2.6679762E+02  1.1582805E+01  -1.3169630E+02
2.7227932E+02  1.0485780E+01  -1.3136623E+02
2.6805114E+02  1.1983748E+01  -1.2173659E+02
2.8654686E+02  1.7584112E+00  -1.2296596E+02
2.6825654E+02  1.2824102E+01  -1.2193791E+02
2.8718562E+02  1.0674264E+01  -1.2802799E+02
2.6679762E+02  1.1582805E+01  -1.3169630E+02
2.8555637E+02  1.7420807E+00  -1.3082014E+02
2.6699742E+02  1.2339063E+01  -1.3153661E+02
2.8670537E+02  1.0514150E+01  -1.2864746E+02
2.8718562E+02  1.0674264E+01  -1.2802799E+02
2.8670537E+02  1.0514150E+01  -1.2864746E+02
2.8654686E+02  1.7584112E+00  -1.2296596E+02
2.8657154E+02  -1.6418436E+00  -1.2296722E+02
2.8555637E+02  1.7420807E+00  -1.3082014E+02
2.8554826E+02  -1.6583818E+00  -1.3082139E+02
3.4446687E+02  1.2410753E-01  -1.2759441E+02
3.6448281E+02  1.3673687E-01  -1.2763731E+02
3.8688413E+02  4.7800624E-02  -1.2761839E+02
3.8688413E+02  6.7782460E-02  -1.2761753E+02
3.8688413E+02  4.7800624E-02  -1.2761839E+02
3.8688413E+02  6.7782460E-02  -1.2761753E+02
2.6151968E+02  1.3450959E+01  -1.3190174E+02
2.6232095E+02  1.3450961E+01  -1.3373713E+02
3.6448281E+02  1.3673687E-01  -1.2763731E+02
3.8688413E+02  6.7782460E-02  -1.2761753E+02
0.0000000E+00  0.0000000E+00  0.0000000E+00
1.8750345E+01  -3.6191712E+00  -1.1392333E+01
1.8750345E+01  -3.6191712E+00  -1.1392333E+01
3.7406003E+01  -7.3549296E+00  -2.2901633E+01
3.7406003E+01  -7.3549296E+00  -2.2901633E+01
5.5958893E+01  -1.1213109E+01  -3.4535745E+01
5.5958893E+01  -1.1213109E+01  -3.4535745E+01
7.4400053E+01  -1.5199952E+01  -4.6303108E+01
7.4400053E+01  -1.5199952E+01  -4.6303108E+01
9.2719543E+01  -1.9322149E+01  -5.8212816E+01
9.2719543E+01  -1.9322149E+01  -5.8212816E+01
1.1090624E+02  -2.3586857E+01  -7.0274613E+01
1.1090624E+02  -2.3586857E+01  -7.0274613E+01
1.2894780E+02  -2.8001761E+01  -8.2499015E+01
1.2894780E+02  -2.8001761E+01  -8.2499015E+01
1.4683037E+02  -3.2575102E+01  -9.4897307E+01
1.4683037E+02  -3.2575102E+01  -9.4897307E+01
1.6453843E+02  -3.7315715E+01  -1.0748161E+02
1.6453843E+02  -3.7315715E+01  -1.0748161E+02
1.6689666E+02  -3.6373793E+01  -1.0907952E+02
1.6453843E+02  -3.7315715E+01  -1.0748161E+02
1.6704724E+02  -3.7731186E+01  -1.0588972E+02
1.6689666E+02  -3.6373793E+01  -1.0907952E+02
1.6704724E+02  -3.7731186E+01  -1.0588972E+02
1.6689666E+02  -3.6373793E+01  -1.0907952E+02
1.8040840E+02  -3.3336527E+01  -1.1260477E+02
1.8040840E+02  -3.3336527E+01  -1.1260477E+02
1.9392360E+02  -3.0221175E+01  -1.1604750E+02
1.9392360E+02  -3.0221175E+01  -1.1604750E+02
2.0744154E+02  -2.7025422E+01  -1.1940450E+02
2.0744154E+02  -2.7025422E+01  -1.1940450E+02
2.2096144E+02  -2.3746849E+01  -1.2267249E+02
2.2096144E+02  -2.3746849E+01  -1.2267249E+02
2.3448233E+02  -2.0382937E+01  -1.2584809E+02
2.3448233E+02  -2.0382937E+01  -1.2584809E+02
2.4800319E+02  -1.6931039E+01  -1.2892783E+02
2.4800319E+02  -1.6931039E+01  -1.2892783E+02
2.6152281E+02  -1.3388390E+01  -1.3190816E+02
1.6704724E+02  -3.7731186E+01  -1.0588972E+02
1.8070324E+02  -3.4815523E+01  -1.0891544E+02
1.8070324E+02  -3.4815523E+01  -1.0891544E+02
1.9437566E+02  -3.1744732E+01  -1.1170416E+02
1.9437566E+02  -3.1744732E+01  -1.1170416E+02
2.0806036E+02  -2.8510694E+01  -1.1423607E+02
2.0806036E+02  -2.8510694E+01  -1.1423607E+02
2.2175179E+02  -2.5104534E+01  -1.1649052E+02
2.2175179E+02  -2.5104534E+01  -1.1649052E+02
2.3544262E+02  -2.1516321E+01  -1.1844605E+02
2.3544262E+02  -2.1516321E+01  -1.1844605E+02
2.4912347E+02  -1.7734614E+01  -1.2008033E+02
2.4912347E+02  -1.7734614E+01  -1.2008033E+02
2.6278229E+02  -1.3745908E+01  -1.2137006E+02
2.6152281E+02  -1.3388390E+01  -1.3190816E+02
2.6680002E+02  -1.1518324E+01  -1.3170181E+02
2.6152281E+02  -1.3388390E+01  -1.3190816E+02
2.6699836E+02  -1.2265671E+01  -1.3154316E+02
2.6278229E+02  -1.3745908E+01  -1.2137006E+02
2.6826191E+02  -1.2736829E+01  -1.2193692E+02
2.6278229E+02  -1.3745908E+01  -1.2137006E+02
2.6805621E+02  -1.1893563E+01  -1.2173030E+02
2.6680002E+02  -1.1518324E+01  -1.3170181E+02
2.7227933E+02  -1.0409997E+01  -1.3136993E+02
2.6699836E+02  -1.2265671E+01  -1.3154316E+02
2.7227933E+02  -1.0409997E+01  -1.3136993E+02
2.6826191E+02  -1.2736829E+01  -1.2193692E+02
2.7354079E+02  -1.0896387E+01  -1.2226424E+02
2.6805621E+02  -1.1893563E+01  -1.2173030E+02
2.7354079E+02  -1.0896387E+01  -1.2226424E+02
2.6680002E+02  -1.1518324E+01  -1.3170181E+02
2.8554826E+02  -1.6583818E+00  -1.3082139E+02
2.6699836E+02  -1.2265671E+01  -1.3154316E+02
2.8670216E+02  -1.0427616E+01  -1.2863426E+02
2.6805621E+02  -1.1893563E+01  -1.2173030E+02
2.8657154E+02  -1.6418436E+00  -1.2296722E+02
2.6826191E+02  -1.2736829E+01  -1.2193692E+02
2.8719233E+02  -1.0582268E+01  -1.2802121E+02
2.8670216E+02  -1.0427616E+01  -1.2863426E+02
2.8719233E+02  -1.0582268E+01  -1.2802121E+02
2.6152281E+02  -1.3388390E+01  -1.3190816E+02
2.6232407E+02  -1.3388388E+01  -1.3374355E+02
3.4446689E+02  -1.5472377E-02  -1.2759681E+02
3.6448277E+02  -2.1556823E-02  -1.2764350E+02
3.6448277E+02  -2.1556823E-02  -1.2764350E+02
3.8688413E+02  4.7800624E-02  -1.2761839E+02

CELLS 88 264
2 0 1
2 2 3
2 4 5
2 6 7
2 8 9
2 10 11
2 12 13
2 14 15
2 16 17
2 18 19
2 20 21
2 22 23
2 24 25
2 26 27
2 28 29
2 30 31
2 32 33
2 34 35
2 36 37
2 38 39
2 40 41
2 42 43
2 44 45
2 46 47
2 48 49
2 50 51
2 52 53
2 54 55
2 56 57
2 58 59
2 60 61
2 62 63
2 64 65
2 66 67
2 68 69
2 70 71
2 72 73
2 74 75
2 76 77
2 78 79
2 80 81
2 82 83
2 84 85
2 86 87
2 88 89
2 90 91
2 92 93
2 94 95
2 96 97
2 98 99
2 100 101
2 102 103
2 104 105
2 106 107
2 108 109
2 110 111
2 112 113
2 114 115
2 116 117
2 118 119
2 120 121
2 122 123
2 124 125
2 126 127
2 128 129
2 130 131
2 132 133
2 134 135
2 136 137
2 138 139
2 140 141
2 142 143
2 144 145
2 146 147
2 148 149
2 150 151
2 152 153
2 154 155
2 156 157
2 158 159
2 160 161
2 162 163
2 164 165
2 166 167
2 168 169
2 170 171
2 172 173
2 174 175

CELL_TYPES 88
3
3
3
3
3
3
3
3
3
3
3
3
3
3
3
3
3
3
3
3
3
3
3
3
3
3
3
3
3
3
3
3
3
3
3
3
3
3
3
3
3
3
3
3
3
3
3
3
3
3
3
3
3
3
3
3
3
3
3
3
3
3
3
3
3
3
3
3
3
3
3
3
3
3
3
3
3
3
3
3
3
3
3
3
3
3
3
3

CELL_DATA 88
SCALARS rig_tension_in_N float 1
LOOKUP_TABLE default
3.97e+04
3.93e+04
3.90e+04
3.86e+04
3.82e+04
3.79e+04
3.75e+04
3.72e+04
3.68e+04
9.05e+03
2.01e+04
-7.04e+03
7.45e+03
7.32e+03
7.19e+03
7.07e+03
6.95e+03
6.83e+03
6.72e+03
1.69e+04
1.68e+04
1.66e+04
1.65e+04
1.64e+04
1.62e+04
1.61e+04
4.82e+03
1.85e+03
4.87e+03
9.20e+03
-1.20e-04
9.68e+02
2.39e+03
1.60e+03
-1.42e-03
5.22e+02
1.30e+03
2.01e+03
3.61e+02
2.03e+03
2.78e+03
1.28e+03
1.96e+01
1.96e+01
2.13e+03
-4.38e-03
3.97e+04
3.93e+04
3.90e+04
3.86e+04
3.82e+04
3.79e+04
3.75e+04
3.72e+04
3.68e+04
2.01e+04
9.08e+03
-7.06e+03
1.69e+04
1.67e+04
1.66e+04
1.65e+04
1.63e+04
1.62e+04
1.61e+04
7.48e+03
7.35e+03
7.22e+03
7.09e+03
6.97e+03
6.86e+03
6.75e+03
9.14e+03
4.91e+03
1.85e+03
4.84e+03
1.58e+03
2.44e+03
9.67e+02
6.05e+00
1.11e+03
1.99e+03
1.10e+02
5.29e+02
3.71e+02
2.13e+03
1.28e+03
-4.38e-03
SCALARS element_no float 1
LOOKUP_TABLE default
1
1
1
1
1
1
1
1
1
2
3
4
5
5
5
5
5
5
5
6
6
6
6
6
6
6
7
8
9
10
11
12
13
14
15
16
17
18
19
20
21
22
23
24
25
26
27
27
27
27
27
27
27
27
27
28
29
30
31
31
31
31
31
31
31
32
32
32
32
32
32
32
33
34
35
36
37
38
39
40
41
42
43
44
45
46
47
48
