# vtk DataFile Version 2.0
trawl body or surfaces
ASCII

DATASET UNSTRUCTURED_GRID
POINTS 299 float
5.2536465E+00  6.2306766E-02  2.3988364E-02
4.5788326E+00  2.5928637E+00  2.3353027E-02
2.7167798E+00  4.4350607E+00  2.9154922E-02
1.9659606E-01  5.1479770E+00  2.2451953E-02
-2.3323423E+00  4.4687800E+00  2.3062860E-02
-4.1714156E+00  2.6043642E+00  2.1217242E-02
-4.8132939E+00  6.4474543E-02  2.6970129E-02
-4.1795809E+00  -2.4773896E+00  1.9665798E-02
-2.3405954E+00  -4.3417408E+00  2.2073508E-02
1.8848104E-01  -5.0203013E+00  2.1215083E-02
2.7083209E+00  -4.3060070E+00  2.8694827E-02
4.5734750E+00  -2.4668334E+00  2.3244162E-02
7.4107990E+00  9.2205314E-01  -9.5428826E+00
6.7314023E+00  3.4532479E+00  -9.5359329E+00
4.8642904E+00  5.3209485E+00  -9.5562643E+00
2.3343337E+00  6.0032617E+00  -9.6085062E+00
-1.9747429E-01  5.3267011E+00  -9.6354822E+00
-2.0634221E+00  3.4576462E+00  -9.6449472E+00
-2.7421324E+00  9.2161645E-01  -9.6328024E+00
-2.0643575E+00  -1.6145427E+00  -9.6185016E+00
-1.9712397E-01  -3.4822620E+00  -9.6381703E+00
2.3351367E+00  -4.1594660E+00  -9.6398642E+00
4.8660964E+00  -3.4778810E+00  -9.6127060E+00
6.7317169E+00  -1.6088390E+00  -9.5803748E+00
5.5536560E+00  6.2067583E-02  2.9194659E-02
4.8389235E+00  2.7424823E+00  2.7006929E-02
2.8672565E+00  4.6945841E+00  2.3982781E-02
1.9669264E-01  5.4480158E+00  2.6593707E-02
-2.4827354E+00  4.7283511E+00  2.8399250E-02
-4.4315289E+00  2.7539682E+00  2.5037017E-02
-5.1132924E+00  6.4711879E-02  2.0799233E-02
-4.4398402E+00  -2.6267272E+00  2.4034643E-02
-2.4911416E+00  -4.6012345E+00  2.6896734E-02
1.8838164E-01  -5.3203513E+00  2.5169629E-02
2.8585610E+00  -4.5656698E+00  2.3392694E-02
4.8333499E+00  -2.6168264E+00  2.7134403E-02
5.2425901E+00  6.2281968E-02  1.0239001E+00
4.5706328E+00  2.5924612E+00  1.0232993E+00
2.7260898E+00  4.4502372E+00  1.0289452E+00
2.0046746E-01  5.1393209E+00  1.0223890E+00
-2.3273259E+00  4.4585093E+00  1.0229699E+00
-4.1670045E+00  2.5960166E+00  1.0211540E+00
-4.8345108E+00  6.4578562E-02  1.0266908E+00
-4.1737711E+00  -2.4686239E+00  1.0195943E+00
-2.3359324E+00  -4.3329249E+00  1.0219944E+00
1.9229876E-01  -5.0121201E+00  1.0211569E+00
2.7175545E+00  -4.3216843E+00  1.0284775E+00
4.5644592E+00  -2.4662501E+00  1.0231836E+00
9.0677048E+00  5.8469537E-02  -9.9263913E-02
-4.2478706E+00  7.7614938E+00  -1.1633974E-01
-4.2567556E+00  -7.6355003E+00  -1.2606038E-01
2.4109856E+01  6.3310878E-02  -6.4331169E-01
-1.1753940E+01  2.0810195E+01  -6.9767755E-01
-1.1782399E+01  -2.0680733E+01  -7.2960578E-01
2.4122181E+01  6.8065570E-02  3.5660106E-01
-1.1749898E+01  2.0811680E+01  3.0231324E-01
-1.1779286E+01  -2.0679600E+01  2.7038881E-01
9.1284844E+01  3.1478278E-02  -2.9907569E+01
-4.5556198E+01  7.9168158E+01  -2.9518600E+01
-4.5627281E+01  -7.9160512E+01  -2.9356014E+01
1.1800000E+02  0.0000000E+00  -3.2000000E+01
-5.9000000E+01  1.0219100E+02  -3.2000000E+01
-5.9000000E+01  -1.0219100E+02  -3.2000000E+01
7.6936015E+00  9.2199674E-01  -9.6433788E+00
6.9710612E+00  3.6005103E+00  -9.6405948E+00
5.0126000E+00  5.5654378E+00  -9.6473943E+00
2.3355686E+00  6.2921881E+00  -9.6897345E+00
-3.4369155E-01  5.5733515E+00  -9.7241745E+00
-2.2996299E+00  3.6062205E+00  -9.7554836E+00
-3.0128396E+00  9.2528109E-01  -9.7623935E+00
-2.2962112E+00  -1.7547093E+00  -9.7476780E+00
-3.3738550E-01  -3.7191610E+00  -9.7577286E+00
2.3403396E+00  -4.4440306E+00  -9.7351597E+00
5.0189189E+00  -3.7230652E+00  -9.6940048E+00
6.9770666E+00  -1.7580157E+00  -9.6677026E+00
1.4082206E+01  6.0280810E-02  -2.6796786E-01
1.9096268E+01  6.1895130E-02  -4.4931762E-01
-6.7489953E+00  1.2112023E+01  -2.9998610E-01
-9.2510223E+00  1.6461597E+01  -4.9376638E-01
-6.7650639E+00  -1.1984462E+01  -3.1818973E-01
-9.2736149E+00  -1.6332879E+01  -5.1937282E-01
2.4112321E+01  6.4261816E-02  -4.4332911E-01
2.4114786E+01  6.5212755E-02  -2.4334655E-01
2.4117251E+01  6.6163693E-02  -4.3364008E-02
2.4119716E+01  6.7114631E-02  1.5661852E-01
-1.1753131E+01  2.0810492E+01  -4.9767935E-01
-1.1752323E+01  2.0810789E+01  -2.9768118E-01
-1.1751515E+01  2.0811086E+01  -9.7683031E-02
-1.1750706E+01  2.0811383E+01  1.0231510E-01
-1.1781776E+01  -2.0680507E+01  -5.2960682E-01
-1.1781154E+01  -2.0680280E+01  -3.2960788E-01
-1.1780531E+01  -2.0680053E+01  -1.2960897E-01
-1.1779908E+01  -2.0679827E+01  7.0389919E-02
3.3762690E+01  6.2131179E-02  -4.6925148E+00
4.3396950E+01  5.9830742E-02  -8.7859194E+00
5.3012485E+01  5.6407880E-02  -1.2923283E+01
6.2609176E+01  5.1861490E-02  -1.7104373E+01
7.2186879E+01  4.6191039E-02  -2.1328943E+01
8.1745481E+01  3.9396489E-02  -2.5596758E+01
-1.6591447E+01  2.9192055E+01  -4.7122843E+00
-2.1426177E+01  3.7559016E+01  -8.7613789E+00
-2.6258067E+01  4.5911006E+01  -1.2844798E+01
-3.1087070E+01  5.4247976E+01  -1.6962391E+01
-3.5913126E+01  6.2569859E+01  -2.1113992E+01
-4.0736188E+01  7.0876608E+01  -2.5299450E+01
-1.6630817E+01  -2.9070839E+01  -4.7287301E+00
-2.1474815E+01  -3.7449078E+01  -8.7581854E+00
-2.6314353E+01  -4.5815391E+01  -1.2817841E+01
-3.1149404E+01  -5.4169743E+01  -1.6907578E+01
-3.5979928E+01  -6.2512073E+01  -2.1027267E+01
-4.0805900E+01  -7.0842349E+01  -2.5176789E+01
9.6415374E+01  2.6568231E-02  -3.1592160E+01
1.0179996E+02  2.0771170E-02  -3.2000122E+01
1.0719997E+02  1.4399010E-02  -3.2000175E+01
1.1259999E+02  7.4749990E-03  -3.2000175E+01
-4.8127668E+01  8.3585628E+01  -3.1260371E+01
-5.0821834E+01  8.8206731E+01  -3.2000055E+01
-5.3544765E+01  9.2869981E+01  -3.2000175E+01
-5.6270821E+01  9.7531404E+01  -3.2000175E+01
-4.8187514E+01  -8.3575092E+01  -3.1121515E+01
-5.0861766E+01  -8.8183443E+01  -3.2000016E+01
-5.3573324E+01  -9.2853318E+01  -3.2000175E+01
-5.6286069E+01  -9.7522503E+01  -3.2000175E+01
1.9859064E-01  4.1859925E+00  -3.1428744E-02
1.5864273E+00  2.7457957E+00  -6.1064634E-02
3.0070177E+00  1.3376692E+00  -4.5972689E-02
4.4189121E+00  -7.8372935E-02  3.9805750E-03
-1.2096030E+00  2.7736455E+00  -1.8068562E-01
1.7829153E-01  1.3339316E+00  -2.1554596E-01
1.5936754E+00  -7.5813787E-02  -1.1786731E-01
3.0030371E+00  -1.4914751E+00  -1.8737852E-02
-2.6173999E+00  1.3535763E+00  -2.2029915E-01
-1.2294394E+00  -8.3673025E-02  -3.0936935E-01
1.7947230E-01  -1.4902807E+00  -1.1841839E-01
1.5885421E+00  -2.9061511E+00  -1.9130874E-02
-4.0068169E+00  -8.0954946E-02  -1.1201288E-01
-2.6182429E+00  -1.5181221E+00  -1.9213472E-01
-1.2211432E+00  -2.9173391E+00  -6.8379722E-02
1.8647555E-01  -4.3330388E+00  -7.4673500E-04
2.3342564E+00  -3.1829243E+00  -9.6351884E+00
3.7473172E+00  -1.7664750E+00  -9.6185140E+00
5.1606767E+00  -3.5045078E-01  -9.5942044E+00
6.5758235E+00  1.0635592E+00  -9.5595775E+00
9.1887835E-01  -1.7686768E+00  -9.6354192E+00
2.3319885E+00  -3.5220567E-01  -9.6248592E+00
3.7454289E+00  1.0638339E+00  -9.6058206E+00
5.1606555E+00  2.4778654E+00  -9.5751512E+00
-4.9581411E-01  -3.5374418E-01  -9.6317616E+00
9.1732034E-01  1.0627297E+00  -9.6306813E+00
2.3308043E+00  2.4787588E+00  -9.6159389E+00
3.7461093E+00  3.8927998E+00  -9.5904201E+00
-1.9085592E+00  1.0631349E+00  -9.6355484E+00
-4.9540952E-01  2.4796004E+00  -9.6374667E+00
9.1813068E-01  3.8956254E+00  -9.6274536E+00
2.3335459E+00  5.3096778E+00  -9.6089897E+00
7.4799467E+00  8.6294563E-01  -7.5448119E+00
7.2963501E+00  7.3921167E-01  -5.5569590E+00
6.8084185E+00  5.5297691E-01  -3.6261964E+00
6.0956096E+00  3.1973240E-01  -1.7719756E+00
5.4338144E+00  2.9355100E+00  -1.7521117E+00
6.1231833E+00  3.2159494E+00  -3.6086589E+00
6.5892613E+00  3.4071705E+00  -5.5443287E+00
6.7599905E+00  3.4728794E+00  -7.5360910E+00
7.0855690E+00  2.4705628E+00  -7.5406152E+00
6.8303903E+00  2.3516304E+00  -5.5603480E+00
6.3824892E+00  2.1729068E+00  -3.6191670E+00
5.7009975E+00  1.9232700E+00  -1.7552925E+00
7.3010321E+00  1.4825520E+00  -7.5421583E+00
7.1246721E+00  1.3896147E+00  -5.5519595E+00
6.6315395E+00  1.1970010E+00  -3.6231298E+00
5.9599142E+00  9.4962328E-01  -1.7554004E+00
3.5046222E+00  4.8401846E+00  -1.7640960E+00
4.1585935E+00  5.1578762E+00  -3.6274102E+00
4.5990652E+00  5.3417029E+00  -5.5697566E+00
4.8146673E+00  5.3844174E+00  -7.5577670E+00
5.6002444E+00  4.7087493E+00  -7.5511879E+00
5.3141269E+00  4.6266244E+00  -5.5732931E+00
4.8679885E+00  4.4432277E+00  -3.6321537E+00
4.2283837E+00  4.1355001E+00  -1.7621435E+00
6.3075405E+00  3.9828337E+00  -7.5429538E+00
6.0852469E+00  3.9434249E+00  -5.5556005E+00
5.6030599E+00  3.7403716E+00  -3.6251000E+00
4.9573649E+00  3.4330984E+00  -1.7571461E+00
9.4334013E-01  5.4608881E+00  -1.8064686E+00
1.5778561E+00  5.7203863E+00  -3.6854377E+00
2.0316400E+00  5.9061526E+00  -5.6245161E+00
2.2597467E+00  5.9890890E+00  -7.6098426E+00
2.5084143E+00  5.0947149E+00  -1.7825520E+00
1.5245669E+00  5.3556661E+00  -1.7938635E+00
3.1121798E+00  5.3779010E+00  -3.6682338E+00
2.1428628E+00  5.6424372E+00  -3.6742853E+00
3.5852999E+00  5.5780011E+00  -5.6012685E+00
2.5796556E+00  5.8175917E+00  -5.6182562E+00
3.8773939E+00  5.6658945E+00  -7.5779935E+00
2.8494357E+00  5.8919499E+00  -7.5987011E+00
-1.6131202E+00  4.7164363E+00  -1.8267913E+00
-9.9882010E-01  4.9360267E+00  -3.7175515E+00
-5.5338201E-01  5.1151921E+00  -5.6592060E+00
-3.0776725E-01  5.2393287E+00  -7.6403117E+00
-3.2922812E-02  5.1727871E+00  -1.8121045E+00
-1.0202581E+00  4.9069057E+00  -1.8184121E+00
5.5757923E-01  5.4039285E+00  -3.7090519E+00
-4.1532318E-01  5.1439101E+00  -3.7100802E+00
1.0237162E+00  5.5896936E+00  -5.6452133E+00
1.7877994E-02  5.3182429E+00  -5.6549322E+00
1.3200569E+00  5.7133202E+00  -7.6193952E+00
2.9567775E-01  5.4350473E+00  -7.6322212E+00
-3.4494657E+00  2.8116712E+00  -1.8325841E+00
-2.8352495E+00  3.0059943E+00  -3.7261851E+00
-2.4010748E+00  3.1814431E+00  -5.6707755E+00
-2.1654607E+00  3.3298186E+00  -7.6514745E+00
-2.3130220E+00  3.9846381E+00  -1.8265269E+00
-3.0224935E+00  3.2668451E+00  -1.8281541E+00
-1.7388248E+00  4.1881945E+00  -3.7316518E+00
-2.4186653E+00  3.4753967E+00  -3.7235366E+00
-1.2810752E+00  4.3677619E+00  -5.6704256E+00
-1.9933605E+00  3.6491686E+00  -5.6701938E+00
-9.7889694E-01  4.5140804E+00  -7.6421972E+00
-1.7259385E+00  3.7888171E+00  -7.6474448E+00
-4.0766910E+00  3.1124792E-01  -1.8162377E+00
-3.4575134E+00  5.3406171E-01  -3.7051116E+00
-3.0288736E+00  7.0872491E-01  -5.6510305E+00
-2.8154940E+00  8.3400728E-01  -7.6358695E+00
-3.6771613E+00  1.8275885E+00  -1.8236200E+00
-3.9177712E+00  8.5192111E-01  -1.8187202E+00
-3.1039779E+00  2.0145992E+00  -3.7308168E+00
-3.3029937E+00  1.0433788E+00  -3.7124353E+00
-2.6543970E+00  2.1901337E+00  -5.6719391E+00
-2.8880913E+00  1.2165558E+00  -5.6614354E+00
-2.3666819E+00  2.3494007E+00  -7.6449374E+00
-2.6474006E+00  1.3716294E+00  -7.6410153E+00
-3.4400051E+00  -2.1527491E+00  -1.8102225E+00
-2.8186949E+00  -1.8809063E+00  -3.6919515E+00
-2.3750807E+00  -1.7023750E+00  -5.6341488E+00
-2.1506319E+00  -1.6250121E+00  -7.6202018E+00
-3.8179294E+00  -6.3990690E-01  -1.8092587E+00
-3.5674828E+00  -1.6148991E+00  -1.8088743E+00
-3.2403148E+00  -4.1804666E-01  -3.7114092E+00
-2.9425479E+00  -1.3784606E+00  -3.6941974E+00
-2.7905645E+00  -2.3529182E-01  -5.6518569E+00
-2.5199263E+00  -1.2053910E+00  -5.6415785E+00
-2.5092830E+00  -1.0459701E-01  -7.6279098E+00
-2.2753465E+00  -1.0883515E+00  -7.6233237E+00
-1.6585106E+00  -4.0109452E+00  -1.8289024E+00
-1.0744389E+00  -3.7420210E+00  -3.7229183E+00
-6.2717277E-01  -3.5603169E+00  -5.6639665E+00
-3.5578857E-01  -3.4874456E+00  -7.6443066E+00
-2.7585033E+00  -2.8443919E+00  -1.8148784E+00
-2.0651956E+00  -3.5714565E+00  -1.8211501E+00
-2.1885228E+00  -2.5846283E+00  -3.7145030E+00
-1.4807227E+00  -3.3042366E+00  -3.7153297E+00
-1.7334231E+00  -2.3953400E+00  -5.6530488E+00
-1.0515921E+00  -3.1328505E+00  -5.6614472E+00
-1.4314606E+00  -2.2984336E+00  -7.6279687E+00
-7.5893916E-01  -3.0439672E+00  -7.6381443E+00
8.8036557E-01  -4.7198744E+00  -1.8312571E+00
1.4755880E+00  -4.4702098E+00  -3.7243962E+00
1.9229019E+00  -4.2862861E+00  -5.6651843E+00
2.1891864E+00  -4.1936957E+00  -7.6453545E+00
-6.8537199E-01  -4.2670191E+00  -1.8281824E+00
2.8544664E-01  -4.5285738E+00  -1.8293069E+00
-1.3144179E-01  -4.0160297E+00  -3.7336713E+00
8.6525318E-01  -4.2595186E+00  -3.7245885E+00
3.2467369E-01  -3.8279377E+00  -5.6720431E+00
1.2973628E+00  -4.0867052E+00  -5.6698523E+00
6.5007084E-01  -3.7230264E+00  -7.6427779E+00
1.5979593E+00  -3.9981526E+00  -7.6453060E+00
3.4552345E+00  -4.0494670E+00  -1.8089194E+00
4.0908460E+00  -3.8257182E+00  -3.6921182E+00
4.5444103E+00  -3.6500489E+00  -5.6321961E+00
4.7792857E+00  -3.5409412E+00  -7.6154738E+00
1.8815020E+00  -4.4686699E+00  -1.8198049E+00
2.8619940E+00  -4.1906418E+00  -1.8119019E+00
2.4557771E+00  -4.2453074E+00  -3.7226743E+00
3.4828474E+00  -3.9527833E+00  -3.6982884E+00
2.9191720E+00  -4.0627385E+00  -5.6598147E+00
3.9206328E+00  -3.7829841E+00  -5.6425057E+00
3.2329770E+00  -3.9355444E+00  -7.6310857E+00
4.1908985E+00  -3.6761085E+00  -7.6213908E+00
5.3882855E+00  -2.2425950E+00  -1.7895901E+00
6.0741657E+00  -2.0358288E+00  -3.6570387E+00
6.5263162E+00  -1.8560151E+00  -5.5970770E+00
6.7171997E+00  -1.7182903E+00  -7.5833030E+00
4.2065651E+00  -3.3504890E+00  -1.7980106E+00
4.9403079E+00  -2.6345839E+00  -1.7917430E+00
4.8116986E+00  -3.1411376E+00  -3.6928802E+00
5.6039500E+00  -2.4046317E+00  -3.6644780E+00
5.2857861E+00  -2.9619580E+00  -5.6277355E+00
6.0484309E+00  -2.2299607E+00  -5.6067292E+00
5.5808740E+00  -2.8254821E+00  -7.6012623E+00
6.2854933E+00  -2.1076240E+00  -7.5889581E+00
5.6850625E+00  -1.2880427E+00  -1.7752884E+00
5.9692755E+00  -3.1206982E-01  -1.7636422E+00
6.3222948E+00  -1.0959710E+00  -3.6614789E+00
6.6566940E+00  -1.1417913E-01  -3.6314849E+00
6.8020569E+00  -9.1679610E-01  -5.5949666E+00
7.1066914E+00  6.3538687E-02  -5.5722151E+00
7.0680129E+00  -7.5759272E-01  -7.5709599E+00
7.3112999E+00  2.1582629E-01  -7.5560090E+00

CELLS 396 1584
3 4 3 123
3 123 3 2
3 4 123 127
3 124 127 123
3 124 2 1
3 127 128 132
3 128 127 124
3 124 125 128
3 124 123 2
3 4 127 5
3 6 5 135
3 131 5 127
3 135 5 131
3 135 132 136
3 132 135 131
3 7 136 8
3 136 7 135
3 132 133 136
3 135 7 6
3 131 127 132
3 128 129 132
3 129 125 126
3 1 125 124
3 126 125 1
3 125 129 128
3 126 0 11
3 0 126 1
3 130 11 10
3 11 130 126
3 126 130 129
3 129 130 134
3 137 138 8
3 134 137 133
3 137 8 136
3 133 137 136
3 134 10 138
3 10 134 130
3 138 9 8
3 9 138 10
3 134 138 137
3 133 129 134
3 129 133 132
3 20 21 139
3 139 21 22
3 20 139 143
3 140 143 139
3 140 22 23
3 143 144 148
3 144 143 140
3 140 141 144
3 140 139 22
3 20 143 19
3 18 19 151
3 147 19 143
3 151 19 147
3 151 148 152
3 148 151 147
3 17 152 16
3 152 17 151
3 148 149 152
3 151 17 18
3 147 143 148
3 144 145 148
3 145 141 142
3 23 141 140
3 142 141 23
3 141 145 144
3 142 12 13
3 12 142 23
3 146 13 14
3 13 146 142
3 142 146 145
3 145 146 150
3 153 154 16
3 150 153 149
3 153 16 152
3 149 153 152
3 150 14 154
3 14 150 146
3 154 15 16
3 15 154 14
3 150 154 153
3 149 145 150
3 145 149 148
3 13 162 163
3 163 161 164
3 161 163 162
3 164 161 160
3 163 164 168
3 13 163 12
3 12 167 155
3 167 12 163
3 155 168 156
3 168 155 167
3 156 168 169
3 167 163 168
3 164 165 168
3 160 165 164
3 165 160 159
3 159 1 166
3 166 1 0
3 159 166 165
3 165 166 170
3 169 157 156
3 157 169 170
3 170 0 158
3 0 170 166
3 170 158 157
3 169 165 170
3 165 169 168
3 14 174 175
3 175 173 176
3 173 175 174
3 176 173 172
3 175 176 180
3 14 175 13
3 162 13 179
3 179 180 161
3 180 179 175
3 161 180 181
3 179 161 162
3 13 175 179
3 176 177 180
3 172 177 176
3 177 172 171
3 171 2 178
3 178 2 1
3 171 178 177
3 177 178 182
3 181 160 161
3 160 181 182
3 182 1 159
3 1 182 178
3 182 159 160
3 181 177 182
3 177 181 180
3 171 2 187
3 172 187 189
3 187 172 171
3 189 187 188
3 172 189 191
3 2 3 187
3 174 173 193
3 174 193 14
3 193 173 191
3 193 191 192
3 14 193 15
3 173 172 191
3 189 190 191
3 188 190 189
3 190 188 183
3 3 183 188
3 183 184 190
3 188 187 3
3 190 184 185
3 192 194 193
3 194 192 185
3 185 186 194
3 186 15 194
3 192 190 185
3 194 15 193
3 190 192 191
3 183 3 199
3 184 199 201
3 199 184 183
3 201 199 200
3 184 201 203
3 3 4 199
3 186 185 205
3 186 205 15
3 205 185 203
3 205 203 204
3 15 205 16
3 185 184 203
3 201 202 203
3 200 202 201
3 202 200 195
3 4 195 200
3 195 196 202
3 200 199 4
3 202 196 197
3 204 206 205
3 206 204 197
3 197 198 206
3 198 16 206
3 204 202 197
3 206 16 205
3 202 204 203
3 195 4 211
3 196 211 213
3 211 196 195
3 213 211 212
3 196 213 215
3 4 5 211
3 198 197 217
3 198 217 16
3 217 197 215
3 217 215 216
3 16 217 17
3 197 196 215
3 213 214 215
3 212 214 213
3 214 212 207
3 5 207 212
3 207 208 214
3 212 211 5
3 214 208 209
3 216 218 217
3 218 216 209
3 209 210 218
3 210 17 218
3 216 214 209
3 218 17 217
3 214 216 215
3 207 5 223
3 208 223 225
3 223 208 207
3 225 223 224
3 208 225 227
3 5 6 223
3 210 209 229
3 210 229 17
3 229 209 227
3 229 227 228
3 17 229 18
3 209 208 227
3 225 226 227
3 224 226 225
3 226 224 219
3 6 219 224
3 219 220 226
3 224 223 6
3 226 220 221
3 228 230 229
3 230 228 221
3 221 222 230
3 222 18 230
3 228 226 221
3 230 18 229
3 226 228 227
3 219 6 235
3 220 235 237
3 235 220 219
3 237 235 236
3 220 237 239
3 6 7 235
3 222 221 241
3 222 241 18
3 241 221 239
3 241 239 240
3 18 241 19
3 221 220 239
3 237 238 239
3 236 238 237
3 238 236 231
3 7 231 236
3 231 232 238
3 236 235 7
3 238 232 233
3 240 242 241
3 242 240 233
3 233 234 242
3 234 19 242
3 240 238 233
3 242 19 241
3 238 240 239
3 231 7 247
3 232 247 249
3 247 232 231
3 249 247 248
3 232 249 251
3 7 8 247
3 234 233 253
3 234 253 19
3 253 233 251
3 253 251 252
3 19 253 20
3 233 232 251
3 249 250 251
3 248 250 249
3 250 248 243
3 8 243 248
3 243 244 250
3 248 247 8
3 250 244 245
3 252 254 253
3 254 252 245
3 245 246 254
3 246 20 254
3 252 250 245
3 254 20 253
3 250 252 251
3 243 8 259
3 244 259 261
3 259 244 243
3 261 259 260
3 244 261 263
3 8 9 259
3 246 245 265
3 246 265 20
3 265 245 263
3 265 263 264
3 20 265 21
3 245 244 263
3 261 262 263
3 260 262 261
3 262 260 255
3 9 255 260
3 255 256 262
3 260 259 9
3 262 256 257
3 264 266 265
3 266 264 257
3 257 258 266
3 258 21 266
3 264 262 257
3 266 21 265
3 262 264 263
3 255 9 271
3 256 271 273
3 271 256 255
3 273 271 272
3 256 273 275
3 9 10 271
3 258 257 277
3 258 277 21
3 277 257 275
3 277 275 276
3 21 277 22
3 257 256 275
3 273 274 275
3 272 274 273
3 274 272 267
3 10 267 272
3 267 268 274
3 272 271 10
3 274 268 269
3 276 278 277
3 278 276 269
3 269 270 278
3 270 22 278
3 276 274 269
3 278 22 277
3 274 276 275
3 267 10 283
3 268 283 285
3 283 268 267
3 285 283 284
3 268 285 287
3 10 11 283
3 270 269 289
3 270 289 22
3 289 269 287
3 289 287 288
3 22 289 23
3 269 268 287
3 285 286 287
3 284 286 285
3 286 284 279
3 11 279 284
3 279 280 286
3 284 283 11
3 286 280 281
3 288 290 289
3 290 288 281
3 281 282 290
3 282 23 290
3 288 286 281
3 290 23 289
3 286 288 287
3 279 11 291
3 280 291 293
3 291 280 279
3 293 291 292
3 280 293 295
3 11 0 291
3 282 281 297
3 282 297 23
3 297 281 295
3 297 295 296
3 23 297 12
3 281 280 295
3 293 294 295
3 292 294 293
3 294 292 157
3 0 158 292
3 158 157 292
3 292 291 0
3 294 157 156
3 296 298 297
3 298 296 156
3 156 155 298
3 155 12 298
3 296 294 156
3 298 12 297
3 294 296 295

CELL_TYPES 396
5
5
5
5
5
5
5
5
5
5
5
5
5
5
5
5
5
5
5
5
5
5
5
5
5
5
5
5
5
5
5
5
5
5
5
5
5
5
5
5
5
5
5
5
5
5
5
5
5
5
5
5
5
5
5
5
5
5
5
5
5
5
5
5
5
5
5
5
5
5
5
5
5
5
5
5
5
5
5
5
5
5
5
5
5
5
5
5
5
5
5
5
5
5
5
5
5
5
5
5
5
5
5
5
5
5
5
5
5
5
5
5
5
5
5
5
5
5
5
5
5
5
5
5
5
5
5
5
5
5
5
5
5
5
5
5
5
5
5
5
5
5
5
5
5
5
5
5
5
5
5
5
5
5
5
5
5
5
5
5
5
5
5
5
5
5
5
5
5
5
5
5
5
5
5
5
5
5
5
5
5
5
5
5
5
5
5
5
5
5
5
5
5
5
5
5
5
5
5
5
5
5
5
5
5
5
5
5
5
5
5
5
5
5
5
5
5
5
5
5
5
5
5
5
5
5
5
5
5
5
5
5
5
5
5
5
5
5
5
5
5
5
5
5
5
5
5
5
5
5
5
5
5
5
5
5
5
5
5
5
5
5
5
5
5
5
5
5
5
5
5
5
5
5
5
5
5
5
5
5
5
5
5
5
5
5
5
5
5
5
5
5
5
5
5
5
5
5
5
5
5
5
5
5
5
5
5
5
5
5
5
5
5
5
5
5
5
5
5
5
5
5
5
5
5
5
5
5
5
5
5
5
5
5
5
5
5
5
5
5
5
5
5
5
5
5
5
5
5
5
5
5
5
5
5
5
5
5
5
5
5
5
5
5
5
5
5
5
5
5
5
5
5
5
5
5
5
5
5
5
5
5
5
5
5
5
5
5
5
5
5
5
5
5
5
5

CELL_DATA 396
SCALARS u_tension_in_N double 1
LOOKUP_TABLE default
-0
1.78899
-0
0.582615
-0
0.12459
0.12459
0.577319
0.582615
0.199264
0.00598866
-0
0.0712156
0.00347484
0.0274321
-0
0.00347484
0.0203205
-0
0.0274321
0.120419
0.572892
0.577319
0.572892
0.120419
0.953459
-0
-0
0.28021
0.114794
0.114794
-0
0.0126496
-0
-0
-0
-0
-0
-0
-0
0.0126496
0.0203205
1.61943
1.8349
2.03552
1.71732
1.56138
1.7353
1.7353
1.69337
1.71732
1.57487
1.65428
1.45389
2.08665
1.7289
1.71774
1.65381
1.7289
1.68922
1.8564
1.71774
1.71563
1.6743
1.69337
1.6743
1.71563
1.75382
1.5652
1.85024
1.40582
1.68881
1.68881
1.68542
1.66807
1.70484
1.70484
1.26697
1.94675
1.6414
1.72622
1.68542
1.66807
1.68922
0.292605
0.369021
0.299169
0.313914
0.369021
0.345581
0.288135
0.317194
0.296035
0.323978
0.34054
0.323978
0.380231
0.380231
0.330159
0.346433
0.408613
0.399051
0.399051
0.310405
0.353803
0.336758
0.372872
0.325445
0.353803
0.34054
0.247301
0.346755
0.253744
0.265214
0.346755
0.317651
0.292605
0.277429
0.277429
0.291001
0.299169
0.269832
0.357103
0.357103
0.28021
0.292474
0.37501
0.373863
0.373863
0.313914
0.303015
0.346433
0.320042
0.330159
0.303015
0.291001
-0
-0
-0
-0
-0
-0
-0
-0
-0
-0
-0
-0
-0
-0
-0
-0
-0
-0
-0
-0
-0
-0
-0
-0
-0
-0
-0
-0
-0
-0
-0
-0
-0
-0
-0
-0
-0
-0
-0
-0
-0
-0
-0
-0
-0
-0
-0
-0
-0
-0
-0
-0
-0
-0
-0
-0
-0
-0
-0
-0
-0
-0
-0
-0
-0
-0
-0
-0
-0
-0
-0
-0
-0
-0
-0
-0
-0
-0
-0
-0
-0
-0
-0
-0
-0
-0
-0
-0
-0
-0
-0
-0
-0
-0
-0
-0
-0
-0
-0
-0
-0
-0
-0
-0
-0
-0
-0
-0
-0
-0
-0
-0
-0
-0
-0
-0
-0
-0
-0
-0
-0
-0
-0
-0
-0
-0
-0
-0
-0
-0
-0
-0
-0
-0
-0
-0
-0
-0
-0
-0
-0
-0
-0
-0
-0
-0
-0
-0
-0
-0
-0
-0
-0
-0
-0
-0
-0
-0
-0
-0
-0
-0
-0
-0
-0
-0
-0
-0
-0
-0
-0
-0
-0
-0
-0
-0
-0
-0
-0
-0
-0
-0
-0
-0
-0
-0
-0
-0
-0
-0
-0
-0
-0
-0
-0
-0
-0
-0
-0
-0
-0
-0
-0
-0
-0
-0
-0
-0
-0
-0
-0
-0
-0
-0
-0
-0
-0
-0
-0
-0
-0
-0
-0
-0
-0
-0
-0
-0
-0
-0
-0
-0
-0
-0
-0
-0
-0
-0
-0
-0
-0
-0
-0
-0
-0
-0
-0
-0
-0
-0
-0
-0
-0
-0
-0
-0
-0
-0
-0
-0
SCALARS v_tension_in_N double 1
LOOKUP_TABLE default
-0
-0
0.0056582
0.0056582
-0
0.0574343
0.0366078
0.0366078
-0
-0
-0
0.0295254
0.0439659
0.0837859
0.0439659
-0
0.350011
0.0837859
0.0460281
0.0295254
0.0574343
0.327938
-0
0.703488
0.327938
-0
1.6994
-0
1.06505
1.06505
1.07964
0.153602
0.371118
0.577567
0.371118
1.09663
1.07964
-0
3.17641
1.09663
0.352759
0.352759
1.85548
1.6989
1.73957
1.73957
1.82377
1.72481
1.72022
1.72022
1.56403
1.68514
1.78287
1.74558
1.74904
1.73104
1.74904
1.5899
1.93246
1.73104
1.70304
1.74558
1.72481
1.67366
1.94284
1.32365
1.67366
1.67421
1.65079
1.53865
1.64425
1.64425
1.64858
2.07922
1.68799
1.38537
1.68799
1.65365
1.64858
1.60142
1.68241
1.65365
1.68161
1.68161
-0
-0
-0
-0
-0
-0
-0
-0
-0
-0
-0
-0
-0
-0
-0
-0
-0
-0
-0
-0
-0
-0
-0
-0
-0
-0
-0
-0
-0
-0
-0
-0
-0
-0
-0
-0
-0
-0
-0
-0
-0
-0
-0
-0
-0
-0
-0
-0
-0
-0
-0
-0
0.292474
0.26841
0.28021
0.26841
0.259485
0.280451
0.253744
0.247301
0.249309
0.249309
0.235383
0.265214
0.259485
0.263552
0.263552
0.251689
0.24357
0.273563
0.232882
0.242372
0.242372
0.221846
0.215647
0.251426
0.234885
0.251426
0.251689
0.271226
0.24357
0.271226
0.263391
0.282039
0.221846
0.215647
0.254138
0.254138
0.241261
0.232882
0.263391
0.269694
0.269694
0.294643
0.286716
0.278298
0.275842
0.25034
0.25034
0.264875
0.258657
0.258787
0.243064
0.258787
0.294643
0.327721
0.286716
0.327721
0.319547
0.33225
0.264875
0.258657
0.309941
0.309941
0.289906
0.275842
0.319547
0.296159
0.296159
0.393679
0.383797
0.305305
0.370319
0.276081
0.276081
0.358029
0.351406
0.28472
0.268696
0.28472
0.393679
0.467881
0.383797
0.467881
0.45726
0.466736
0.358029
0.351406
0.44562
0.44562
0.414445
0.370319
0.45726
0.39209
0.39209
0.459754
0.447191
0.404723
0.430822
0.367485
0.367485
0.416793
0.409736
0.377507
0.359679
0.377507
0.459754
0.532127
0.447191
0.532127
0.519236
0.535218
0.416793
0.409736
0.505566
0.505566
0.472912
0.430822
0.519236
0.456697
0.456697
0.438724
0.425303
0.472629
0.409033
0.426755
0.426755
0.394488
0.38748
0.438669
0.418016
0.438669
0.438724
0.47654
0.425303
0.47654
0.464648
0.495349
0.394488
0.38748
0.451966
0.451966
0.437784
0.409033
0.464648
0.477844
0.477844
0.398673
0.388028
0.491881
0.375381
0.450251
0.450251
0.362596
0.355887
0.461549
0.441532
0.461549
0.398673
0.370563
0.388028
0.370563
0.361807
0.375951
0.362596
0.355887
0.351712
0.351712
0.331083
0.375381
0.361807
0.337953
0.337953
0.314956
0.30658
0.347954
0.29576
0.316484
0.316484
0.284477
0.278177
0.325611
0.308841
0.325611
0.314956
0.305056
0.30658
0.305056
0.297263
0.303812
0.284477
0.278177
0.287964
0.287964
0.262908
0.29576
0.297263
0.251356
0.251356
0.266196
0.258291
0.260043
0.247567
0.232007
0.232007
0.236643
0.230441
0.240405
0.224738
0.240405
0.266196
0.279717
0.258291
0.279717
0.271623
0.278396
0.236643
0.230441
0.262066
0.262066
0.236195
0.247567
0.271623
0.223295
0.223295
0.290962
0.281185
0.23248
0.267665
0.203236
0.203236
0.255699
0.249409
0.211881
0.195974
0.211881
0.290962
0.344282
0.281185
0.344282
0.333603
0.34614
0.255699
0.249409
0.322113
0.322113
0.293658
0.267665
0.333603
0.277755
0.277755
0.336758
0.325445
0.293076
0.310405
0.253857
0.253857
0.296035
0.288135
0.264139
0.246308
0.264139
SCALARS panel_no int 1
LOOKUP_TABLE default
1
1
1
1
1
1
1
1
1
1
1
1
1
1
1
1
1
1
1
1
1
1
1
1
1
1
1
1
1
1
1
1
1
1
1
1
1
1
1
1
1
1
2
2
2
2
2
2
2
2
2
2
2
2
2
2
2
2
2
2
2
2
2
2
2
2
2
2
2
2
2
2
2
2
2
2
2
2
2
2
2
2
2
2
3
3
3
3
3
3
3
3
3
3
3
3
3
3
3
3
3
3
3
3
3
3
3
3
3
3
4
4
4
4
4
4
4
4
4
4
4
4
4
4
4
4
4
4
4
4
4
4
4
4
4
4
5
5
5
5
5
5
5
5
5
5
5
5
5
5
5
5
5
5
5
5
5
5
5
5
5
5
6
6
6
6
6
6
6
6
6
6
6
6
6
6
6
6
6
6
6
6
6
6
6
6
6
6
7
7
7
7
7
7
7
7
7
7
7
7
7
7
7
7
7
7
7
7
7
7
7
7
7
7
8
8
8
8
8
8
8
8
8
8
8
8
8
8
8
8
8
8
8
8
8
8
8
8
8
8
9
9
9
9
9
9
9
9
9
9
9
9
9
9
9
9
9
9
9
9
9
9
9
9
9
9
10
10
10
10
10
10
10
10
10
10
10
10
10
10
10
10
10
10
10
10
10
10
10
10
10
10
11
11
11
11
11
11
11
11
11
11
11
11
11
11
11
11
11
11
11
11
11
11
11
11
11
11
12
12
12
12
12
12
12
12
12
12
12
12
12
12
12
12
12
12
12
12
12
12
12
12
12
12
13
13
13
13
13
13
13
13
13
13
13
13
13
13
13
13
13
13
13
13
13
13
13
13
13
13
14
14
14
14
14
14
14
14
14
14
14
14
14
14
14
14
14
14
14
14
14
14
14
14
14
14
SCALARS tri_element_no int 
LOOKUP_TABLE default
1
2
3
4
5
6
7
8
9
10
11
12
13
14
15
16
17
18
19
20
21
22
23
24
25
26
27
28
29
30
31
32
33
34
35
36
37
38
39
40
41
42
43
44
45
46
47
48
49
50
51
52
53
54
55
56
57
58
59
60
61
62
63
64
65
66
67
68
69
70
71
72
73
74
75
76
77
78
79
80
81
82
83
84
85
86
87
88
89
90
91
92
93
94
95
96
97
98
99
100
101
102
103
104
105
106
107
108
109
110
111
112
113
114
115
116
117
118
119
120
121
122
123
124
125
126
127
128
129
130
131
132
133
134
135
136
137
138
139
140
141
142
143
144
145
146
147
148
149
150
151
152
153
154
155
156
157
158
159
160
161
162
163
164
165
166
167
168
169
170
171
172
173
174
175
176
177
178
179
180
181
182
183
184
185
186
187
188
189
190
191
192
193
194
195
196
197
198
199
200
201
202
203
204
205
206
207
208
209
210
211
212
213
214
215
216
217
218
219
220
221
222
223
224
225
226
227
228
229
230
231
232
233
234
235
236
237
238
239
240
241
242
243
244
245
246
247
248
249
250
251
252
253
254
255
256
257
258
259
260
261
262
263
264
265
266
267
268
269
270
271
272
273
274
275
276
277
278
279
280
281
282
283
284
285
286
287
288
289
290
291
292
293
294
295
296
297
298
299
300
301
302
303
304
305
306
307
308
309
310
311
312
313
314
315
316
317
318
319
320
321
322
323
324
325
326
327
328
329
330
331
332
333
334
335
336
337
338
339
340
341
342
343
344
345
346
347
348
349
350
351
352
353
354
355
356
357
358
359
360
361
362
363
364
365
366
367
368
369
370
371
372
373
374
375
376
377
378
379
380
381
382
383
384
385
386
387
388
389
390
391
392
393
394
395
396
SCALARS solidity_diamond float 1
LOOKUP_TABLE default
0.38
0.39
0.38
0.38
0.38
0.38
0.38
0.38
0.38
0.38
0.39
0.38
0.38
0.38
0.38
0.38
0.38
0.38
0.38
0.38
0.38
0.38
0.38
0.38
0.38
0.38
0.38
0.38
0.38
0.38
0.38
0.38
0.38
0.38
0.38
0.38
0.38
0.38
0.38
0.38
0.38
0.38
0.38
0.38
0.38
0.38
0.38
0.38
0.38
0.38
0.38
0.38
0.38
0.38
0.38
0.38
0.38
0.38
0.38
0.38
0.38
0.38
0.38
0.38
0.38
0.38
0.38
0.38
0.38
0.38
0.38
0.38
0.38
0.38
0.38
0.38
0.38
0.38
0.38
0.38
0.38
0.38
0.38
0.38
0.72
0.70
0.72
0.70
0.76
0.75
0.71
0.75
0.68
0.71
0.68
0.75
0.76
0.71
0.71
0.73
0.75
0.73
0.75
0.68
0.68
0.71
0.75
0.71
0.75
0.75
0.73
0.75
0.73
0.75
0.74
0.75
0.67
0.62
0.75
0.62
0.67
0.75
0.74
0.76
0.76
0.76
0.76
0.76
0.76
0.62
0.62
0.67
0.76
0.67
0.75
0.75
0.78
0.73
0.77
0.77
0.72
0.79
0.78
0.78
0.73
0.74
0.75
0.74
0.77
0.78
0.80
0.81
0.83
0.78
0.81
0.73
0.83
0.77
0.76
0.84
0.72
0.75
0.81
0.74
0.79
0.78
0.73
0.82
0.78
0.78
0.73
0.74
0.75
0.74
0.78
0.80
0.77
0.79
0.78
0.80
0.76
0.72
0.76
0.72
0.72
0.77
0.72
0.75
0.80
0.75
0.78
0.78
0.74
0.80
0.78
0.77
0.74
0.76
0.75
0.74
0.79
0.81
0.76
0.77
0.76
0.80
0.74
0.74
0.74
0.72
0.72
0.75
0.73
0.77
0.77
0.75
0.76
0.77
0.75
0.77
0.76
0.76
0.75
0.76
0.75
0.75
0.78
0.78
0.82
0.83
0.88
0.77
0.87
0.75
0.87
0.81
0.81
0.88
0.75
0.77
0.77
0.78
0.77
0.76
0.78
0.75
0.77
0.77
0.78
0.75
0.75
0.78
0.76
0.76
0.83
0.83
0.88
0.76
0.88
0.75
0.88
0.83
0.83
0.88
0.75
0.75
0.79
0.81
0.79
0.76
0.81
0.76
0.77
0.77
0.81
0.76
0.75
0.81
0.76
0.76
0.77
0.77
0.77
0.76
0.77
0.76
0.76
0.76
0.76
0.76
0.76
0.76
0.79
0.80
0.78
0.78
0.79
0.79
0.74
0.74
0.78
0.76
0.76
0.78
0.75
0.76
0.75
0.76
0.73
0.79
0.72
0.78
0.70
0.74
0.73
0.70
0.77
0.77
0.79
0.79
0.77
0.78
0.78
0.82
0.71
0.71
0.75
0.74
0.75
0.77
0.73
0.75
0.79
0.81
0.78
0.81
0.75
0.77
0.72
0.76
0.76
0.73
0.77
0.75
0.79
0.80
0.78
0.77
0.79
0.81
0.71
0.71
0.76
0.73
0.75
0.77
0.72
0.74
0.81
0.83
0.81
0.80
0.78
0.76
0.76
0.79
0.78
0.77
0.76
0.73
0.78
0.79
0.77
0.76
0.79
0.77
0.75
0.74
0.78
0.74
0.75
0.78
0.74
0.74
0.68
0.73
0.72
0.77
0.67
0.76
0.65
0.68
0.68
0.65
0.76
0.75
