# vtk DataFile Version 2.0
rig or elements
ASCII

DATASET UNSTRUCTURED_GRID
POINTS 324 float
4.5788326E+00  2.5928637E+00  2.3353027E-02
5.2536465E+00  6.2306766E-02  2.3988364E-02
4.5788326E+00  2.5928637E+00  2.3353027E-02
2.7167798E+00  4.4350607E+00  2.9154922E-02
2.7167798E+00  4.4350607E+00  2.9154922E-02
1.9659606E-01  5.1479770E+00  2.2451953E-02
1.9659606E-01  5.1479770E+00  2.2451953E-02
-2.3323423E+00  4.4687800E+00  2.3062860E-02
-2.3323423E+00  4.4687800E+00  2.3062860E-02
-4.1714156E+00  2.6043642E+00  2.1217242E-02
-4.1714156E+00  2.6043642E+00  2.1217242E-02
-4.8132939E+00  6.4474543E-02  2.6970129E-02
-4.8132939E+00  6.4474543E-02  2.6970129E-02
-4.1795809E+00  -2.4773896E+00  1.9665798E-02
-2.3405954E+00  -4.3417408E+00  2.2073508E-02
-4.1795809E+00  -2.4773896E+00  1.9665798E-02
1.8848104E-01  -5.0203013E+00  2.1215083E-02
-2.3405954E+00  -4.3417408E+00  2.2073508E-02
2.7083209E+00  -4.3060070E+00  2.8694827E-02
1.8848104E-01  -5.0203013E+00  2.1215083E-02
4.5734750E+00  -2.4668334E+00  2.3244162E-02
2.7083209E+00  -4.3060070E+00  2.8694827E-02
4.5734750E+00  -2.4668334E+00  2.3244162E-02
5.2536465E+00  6.2306766E-02  2.3988364E-02
4.8389235E+00  2.7424823E+00  2.7006929E-02
5.5536560E+00  6.2067583E-02  2.9194659E-02
4.8389235E+00  2.7424823E+00  2.7006929E-02
2.8672565E+00  4.6945841E+00  2.3982781E-02
2.8672565E+00  4.6945841E+00  2.3982781E-02
1.9669264E-01  5.4480158E+00  2.6593707E-02
1.9669264E-01  5.4480158E+00  2.6593707E-02
-2.4827354E+00  4.7283511E+00  2.8399250E-02
-2.4827354E+00  4.7283511E+00  2.8399250E-02
-4.4315289E+00  2.7539682E+00  2.5037017E-02
-4.4315289E+00  2.7539682E+00  2.5037017E-02
-5.1132924E+00  6.4711879E-02  2.0799233E-02
-4.4398402E+00  -2.6267272E+00  2.4034643E-02
-5.1132924E+00  6.4711879E-02  2.0799233E-02
-2.4911416E+00  -4.6012345E+00  2.6896734E-02
-4.4398402E+00  -2.6267272E+00  2.4034643E-02
1.8838164E-01  -5.3203513E+00  2.5169629E-02
-2.4911416E+00  -4.6012345E+00  2.6896734E-02
2.8585610E+00  -4.5656698E+00  2.3392694E-02
1.8838164E-01  -5.3203513E+00  2.5169629E-02
4.8333499E+00  -2.6168264E+00  2.7134403E-02
2.8585610E+00  -4.5656698E+00  2.3392694E-02
4.8333499E+00  -2.6168264E+00  2.7134403E-02
5.5536560E+00  6.2067583E-02  2.9194659E-02
4.5706328E+00  2.5924612E+00  1.0232993E+00
5.2425901E+00  6.2281968E-02  1.0239001E+00
4.5706328E+00  2.5924612E+00  1.0232993E+00
2.7260898E+00  4.4502372E+00  1.0289452E+00
2.7260898E+00  4.4502372E+00  1.0289452E+00
2.0046746E-01  5.1393209E+00  1.0223890E+00
2.0046746E-01  5.1393209E+00  1.0223890E+00
-2.3273259E+00  4.4585093E+00  1.0229699E+00
-2.3273259E+00  4.4585093E+00  1.0229699E+00
-4.1670045E+00  2.5960166E+00  1.0211540E+00
-4.1670045E+00  2.5960166E+00  1.0211540E+00
-4.8345108E+00  6.4578562E-02  1.0266908E+00
-4.8345108E+00  6.4578562E-02  1.0266908E+00
-4.1737711E+00  -2.4686239E+00  1.0195943E+00
-2.3359324E+00  -4.3329249E+00  1.0219944E+00
-4.1737711E+00  -2.4686239E+00  1.0195943E+00
1.9229876E-01  -5.0121201E+00  1.0211569E+00
-2.3359324E+00  -4.3329249E+00  1.0219944E+00
2.7175545E+00  -4.3216843E+00  1.0284775E+00
1.9229876E-01  -5.0121201E+00  1.0211569E+00
4.5644592E+00  -2.4662501E+00  1.0231836E+00
2.7175545E+00  -4.3216843E+00  1.0284775E+00
4.5644592E+00  -2.4662501E+00  1.0231836E+00
5.2425901E+00  6.2281968E-02  1.0239001E+00
5.5536560E+00  6.2067583E-02  2.9194659E-02
5.2536465E+00  6.2306766E-02  2.3988364E-02
4.8389235E+00  2.7424823E+00  2.7006929E-02
4.5788326E+00  2.5928637E+00  2.3353027E-02
2.8672565E+00  4.6945841E+00  2.3982781E-02
2.7167798E+00  4.4350607E+00  2.9154922E-02
1.9669264E-01  5.4480158E+00  2.6593707E-02
1.9659606E-01  5.1479770E+00  2.2451953E-02
-2.4827354E+00  4.7283511E+00  2.8399250E-02
-2.3323423E+00  4.4687800E+00  2.3062860E-02
-4.4315289E+00  2.7539682E+00  2.5037017E-02
-4.1714156E+00  2.6043642E+00  2.1217242E-02
-4.8132939E+00  6.4474543E-02  2.6970129E-02
-5.1132924E+00  6.4711879E-02  2.0799233E-02
-4.4398402E+00  -2.6267272E+00  2.4034643E-02
-4.1795809E+00  -2.4773896E+00  1.9665798E-02
-2.4911416E+00  -4.6012345E+00  2.6896734E-02
-2.3405954E+00  -4.3417408E+00  2.2073508E-02
1.8838164E-01  -5.3203513E+00  2.5169629E-02
1.8848104E-01  -5.0203013E+00  2.1215083E-02
2.8585610E+00  -4.5656698E+00  2.3392694E-02
2.7083209E+00  -4.3060070E+00  2.8694827E-02
4.8333499E+00  -2.6168264E+00  2.7134403E-02
4.5734750E+00  -2.4668334E+00  2.3244162E-02
5.2536465E+00  6.2306766E-02  2.3988364E-02
5.2425901E+00  6.2281968E-02  1.0239001E+00
4.5788326E+00  2.5928637E+00  2.3353027E-02
4.5706328E+00  2.5924612E+00  1.0232993E+00
2.7167798E+00  4.4350607E+00  2.9154922E-02
2.7260898E+00  4.4502372E+00  1.0289452E+00
1.9659606E-01  5.1479770E+00  2.2451953E-02
2.0046746E-01  5.1393209E+00  1.0223890E+00
-2.3323423E+00  4.4687800E+00  2.3062860E-02
-2.3273259E+00  4.4585093E+00  1.0229699E+00
-4.1714156E+00  2.6043642E+00  2.1217242E-02
-4.1670045E+00  2.5960166E+00  1.0211540E+00
-4.8132939E+00  6.4474543E-02  2.6970129E-02
-4.8345108E+00  6.4578562E-02  1.0266908E+00
-4.1795809E+00  -2.4773896E+00  1.9665798E-02
-4.1737711E+00  -2.4686239E+00  1.0195943E+00
-2.3405954E+00  -4.3417408E+00  2.2073508E-02
-2.3359324E+00  -4.3329249E+00  1.0219944E+00
1.8848104E-01  -5.0203013E+00  2.1215083E-02
1.9229876E-01  -5.0121201E+00  1.0211569E+00
2.7083209E+00  -4.3060070E+00  2.8694827E-02
2.7175545E+00  -4.3216843E+00  1.0284775E+00
4.5734750E+00  -2.4668334E+00  2.3244162E-02
4.5644592E+00  -2.4662501E+00  1.0231836E+00
9.0677048E+00  5.8469537E-02  -9.9263913E-02
4.8389235E+00  2.7424823E+00  2.7006929E-02
9.0677048E+00  5.8469537E-02  -9.9263913E-02
4.8333499E+00  -2.6168264E+00  2.7134403E-02
-4.2478706E+00  7.7614938E+00  -1.1633974E-01
-4.4315289E+00  2.7539682E+00  2.5037017E-02
1.9669264E-01  5.4480158E+00  2.6593707E-02
-4.2478706E+00  7.7614938E+00  -1.1633974E-01
1.8838164E-01  -5.3203513E+00  2.5169629E-02
-4.2567556E+00  -7.6355003E+00  -1.2606038E-01
-4.2567556E+00  -7.6355003E+00  -1.2606038E-01
-4.4398402E+00  -2.6267272E+00  2.4034643E-02
1.4082206E+01  6.0280810E-02  -2.6796786E-01
9.0677048E+00  5.8469537E-02  -9.9263913E-02
1.9096268E+01  6.1895130E-02  -4.4931762E-01
1.4082206E+01  6.0280810E-02  -2.6796786E-01
2.4109856E+01  6.3310878E-02  -6.4331169E-01
1.9096268E+01  6.1895130E-02  -4.4931762E-01
-4.2478706E+00  7.7614938E+00  -1.1633974E-01
-6.7489953E+00  1.2112023E+01  -2.9998610E-01
-6.7489953E+00  1.2112023E+01  -2.9998610E-01
-9.2510223E+00  1.6461597E+01  -4.9376638E-01
-9.2510223E+00  1.6461597E+01  -4.9376638E-01
-1.1753940E+01  2.0810195E+01  -6.9767755E-01
-4.2567556E+00  -7.6355003E+00  -1.2606038E-01
-6.7650639E+00  -1.1984462E+01  -3.1818973E-01
-6.7650639E+00  -1.1984462E+01  -3.1818973E-01
-9.2736149E+00  -1.6332879E+01  -5.1937282E-01
-9.2736149E+00  -1.6332879E+01  -5.1937282E-01
-1.1782399E+01  -2.0680733E+01  -7.2960578E-01
2.4109856E+01  6.3310878E-02  -6.4331169E-01
2.4112321E+01  6.4261816E-02  -4.4332911E-01
2.4112321E+01  6.4261816E-02  -4.4332911E-01
2.4114786E+01  6.5212755E-02  -2.4334655E-01
2.4114786E+01  6.5212755E-02  -2.4334655E-01
2.4117251E+01  6.6163693E-02  -4.3364008E-02
2.4117251E+01  6.6163693E-02  -4.3364008E-02
2.4119716E+01  6.7114631E-02  1.5661852E-01
2.4119716E+01  6.7114631E-02  1.5661852E-01
2.4122181E+01  6.8065570E-02  3.5660106E-01
-1.1753940E+01  2.0810195E+01  -6.9767755E-01
-1.1753131E+01  2.0810492E+01  -4.9767935E-01
-1.1753131E+01  2.0810492E+01  -4.9767935E-01
-1.1752323E+01  2.0810789E+01  -2.9768118E-01
-1.1752323E+01  2.0810789E+01  -2.9768118E-01
-1.1751515E+01  2.0811086E+01  -9.7683031E-02
-1.1751515E+01  2.0811086E+01  -9.7683031E-02
-1.1750706E+01  2.0811383E+01  1.0231510E-01
-1.1750706E+01  2.0811383E+01  1.0231510E-01
-1.1749898E+01  2.0811680E+01  3.0231324E-01
-1.1782399E+01  -2.0680733E+01  -7.2960578E-01
-1.1781776E+01  -2.0680507E+01  -5.2960682E-01
-1.1781776E+01  -2.0680507E+01  -5.2960682E-01
-1.1781154E+01  -2.0680280E+01  -3.2960788E-01
-1.1781154E+01  -2.0680280E+01  -3.2960788E-01
-1.1780531E+01  -2.0680053E+01  -1.2960897E-01
-1.1780531E+01  -2.0680053E+01  -1.2960897E-01
-1.1779908E+01  -2.0679827E+01  7.0389919E-02
-1.1779908E+01  -2.0679827E+01  7.0389919E-02
-1.1779286E+01  -2.0679600E+01  2.7038881E-01
3.3762690E+01  6.2131179E-02  -4.6925148E+00
2.4109856E+01  6.3310878E-02  -6.4331169E-01
4.3396950E+01  5.9830742E-02  -8.7859194E+00
3.3762690E+01  6.2131179E-02  -4.6925148E+00
5.3012485E+01  5.6407880E-02  -1.2923283E+01
4.3396950E+01  5.9830742E-02  -8.7859194E+00
6.2609176E+01  5.1861490E-02  -1.7104373E+01
5.3012485E+01  5.6407880E-02  -1.2923283E+01
7.2186879E+01  4.6191039E-02  -2.1328943E+01
6.2609176E+01  5.1861490E-02  -1.7104373E+01
8.1745481E+01  3.9396489E-02  -2.5596758E+01
7.2186879E+01  4.6191039E-02  -2.1328943E+01
9.1284844E+01  3.1478278E-02  -2.9907569E+01
8.1745481E+01  3.9396489E-02  -2.5596758E+01
-1.1753940E+01  2.0810195E+01  -6.9767755E-01
-1.6591447E+01  2.9192055E+01  -4.7122843E+00
-1.6591447E+01  2.9192055E+01  -4.7122843E+00
-2.1426177E+01  3.7559016E+01  -8.7613789E+00
-2.1426177E+01  3.7559016E+01  -8.7613789E+00
-2.6258067E+01  4.5911006E+01  -1.2844798E+01
-2.6258067E+01  4.5911006E+01  -1.2844798E+01
-3.1087070E+01  5.4247976E+01  -1.6962391E+01
-3.1087070E+01  5.4247976E+01  -1.6962391E+01
-3.5913126E+01  6.2569859E+01  -2.1113992E+01
-3.5913126E+01  6.2569859E+01  -2.1113992E+01
-4.0736188E+01  7.0876608E+01  -2.5299450E+01
-4.0736188E+01  7.0876608E+01  -2.5299450E+01
-4.5556198E+01  7.9168158E+01  -2.9518600E+01
-1.1782399E+01  -2.0680733E+01  -7.2960578E-01
-1.6630817E+01  -2.9070839E+01  -4.7287301E+00
-1.6630817E+01  -2.9070839E+01  -4.7287301E+00
-2.1474815E+01  -3.7449078E+01  -8.7581854E+00
-2.1474815E+01  -3.7449078E+01  -8.7581854E+00
-2.6314353E+01  -4.5815391E+01  -1.2817841E+01
-2.6314353E+01  -4.5815391E+01  -1.2817841E+01
-3.1149404E+01  -5.4169743E+01  -1.6907578E+01
-3.1149404E+01  -5.4169743E+01  -1.6907578E+01
-3.5979928E+01  -6.2512073E+01  -2.1027267E+01
-3.5979928E+01  -6.2512073E+01  -2.1027267E+01
-4.0805900E+01  -7.0842349E+01  -2.5176789E+01
-4.0805900E+01  -7.0842349E+01  -2.5176789E+01
-4.5627281E+01  -7.9160512E+01  -2.9356014E+01
9.6415374E+01  2.6568231E-02  -3.1592160E+01
9.1284844E+01  3.1478278E-02  -2.9907569E+01
1.0179996E+02  2.0771170E-02  -3.2000122E+01
9.6415374E+01  2.6568231E-02  -3.1592160E+01
1.0719997E+02  1.4399010E-02  -3.2000175E+01
1.0179996E+02  2.0771170E-02  -3.2000122E+01
1.1259999E+02  7.4749990E-03  -3.2000175E+01
1.0719997E+02  1.4399010E-02  -3.2000175E+01
1.1800000E+02  0.0000000E+00  -3.2000000E+01
1.1259999E+02  7.4749990E-03  -3.2000175E+01
-4.5556198E+01  7.9168158E+01  -2.9518600E+01
-4.8127668E+01  8.3585628E+01  -3.1260371E+01
-4.8127668E+01  8.3585628E+01  -3.1260371E+01
-5.0821834E+01  8.8206731E+01  -3.2000055E+01
-5.0821834E+01  8.8206731E+01  -3.2000055E+01
-5.3544765E+01  9.2869981E+01  -3.2000175E+01
-5.3544765E+01  9.2869981E+01  -3.2000175E+01
-5.6270821E+01  9.7531404E+01  -3.2000175E+01
-5.6270821E+01  9.7531404E+01  -3.2000175E+01
-5.9000000E+01  1.0219100E+02  -3.2000000E+01
-4.5627281E+01  -7.9160512E+01  -2.9356014E+01
-4.8187514E+01  -8.3575092E+01  -3.1121515E+01
-4.8187514E+01  -8.3575092E+01  -3.1121515E+01
-5.0861766E+01  -8.8183443E+01  -3.2000016E+01
-5.0861766E+01  -8.8183443E+01  -3.2000016E+01
-5.3573324E+01  -9.2853318E+01  -3.2000175E+01
-5.3573324E+01  -9.2853318E+01  -3.2000175E+01
-5.6286069E+01  -9.7522503E+01  -3.2000175E+01
-5.6286069E+01  -9.7522503E+01  -3.2000175E+01
-5.9000000E+01  -1.0219100E+02  -3.2000000E+01
6.9710612E+00  3.6005103E+00  -9.6405948E+00
7.6936015E+00  9.2199674E-01  -9.6433788E+00
6.9710612E+00  3.6005103E+00  -9.6405948E+00
5.0126000E+00  5.5654378E+00  -9.6473943E+00
5.0126000E+00  5.5654378E+00  -9.6473943E+00
2.3355686E+00  6.2921881E+00  -9.6897345E+00
2.3355686E+00  6.2921881E+00  -9.6897345E+00
-3.4369155E-01  5.5733515E+00  -9.7241745E+00
-3.4369155E-01  5.5733515E+00  -9.7241745E+00
-2.2996299E+00  3.6062205E+00  -9.7554836E+00
-2.2996299E+00  3.6062205E+00  -9.7554836E+00
-3.0128396E+00  9.2528109E-01  -9.7623935E+00
-3.0128396E+00  9.2528109E-01  -9.7623935E+00
-2.2962112E+00  -1.7547093E+00  -9.7476780E+00
-3.3738550E-01  -3.7191610E+00  -9.7577286E+00
-2.2962112E+00  -1.7547093E+00  -9.7476780E+00
2.3403396E+00  -4.4440306E+00  -9.7351597E+00
-3.3738550E-01  -3.7191610E+00  -9.7577286E+00
5.0189189E+00  -3.7230652E+00  -9.6940048E+00
2.3403396E+00  -4.4440306E+00  -9.7351597E+00
6.9770666E+00  -1.7580157E+00  -9.6677026E+00
5.0189189E+00  -3.7230652E+00  -9.6940048E+00
6.9770666E+00  -1.7580157E+00  -9.6677026E+00
7.6936015E+00  9.2199674E-01  -9.6433788E+00
5.2536465E+00  6.2306766E-02  2.3988364E-02
7.6936015E+00  9.2199674E-01  -9.6433788E+00
4.5788326E+00  2.5928637E+00  2.3353027E-02
6.9710612E+00  3.6005103E+00  -9.6405948E+00
2.7167798E+00  4.4350607E+00  2.9154922E-02
5.0126000E+00  5.5654378E+00  -9.6473943E+00
1.9659606E-01  5.1479770E+00  2.2451953E-02
2.3355686E+00  6.2921881E+00  -9.6897345E+00
-2.3323423E+00  4.4687800E+00  2.3062860E-02
-3.4369155E-01  5.5733515E+00  -9.7241745E+00
-4.1714156E+00  2.6043642E+00  2.1217242E-02
-2.2996299E+00  3.6062205E+00  -9.7554836E+00
-4.8132939E+00  6.4474543E-02  2.6970129E-02
-3.0128396E+00  9.2528109E-01  -9.7623935E+00
-4.1795809E+00  -2.4773896E+00  1.9665798E-02
-2.2962112E+00  -1.7547093E+00  -9.7476780E+00
-2.3405954E+00  -4.3417408E+00  2.2073508E-02
-3.3738550E-01  -3.7191610E+00  -9.7577286E+00
1.8848104E-01  -5.0203013E+00  2.1215083E-02
2.3403396E+00  -4.4440306E+00  -9.7351597E+00
2.7083209E+00  -4.3060070E+00  2.8694827E-02
5.0189189E+00  -3.7230652E+00  -9.6940048E+00
4.5734750E+00  -2.4668334E+00  2.3244162E-02
6.9770666E+00  -1.7580157E+00  -9.6677026E+00
7.6936015E+00  9.2199674E-01  -9.6433788E+00
7.4107990E+00  9.2205314E-01  -9.5428826E+00
6.9710612E+00  3.6005103E+00  -9.6405948E+00
6.7314023E+00  3.4532479E+00  -9.5359329E+00
5.0126000E+00  5.5654378E+00  -9.6473943E+00
4.8642904E+00  5.3209485E+00  -9.5562643E+00
2.3355686E+00  6.2921881E+00  -9.6897345E+00
2.3343337E+00  6.0032617E+00  -9.6085062E+00
-3.4369155E-01  5.5733515E+00  -9.7241745E+00
-1.9747429E-01  5.3267011E+00  -9.6354822E+00
-2.2996299E+00  3.6062205E+00  -9.7554836E+00
-2.0634221E+00  3.4576462E+00  -9.6449472E+00
-3.0128396E+00  9.2528109E-01  -9.7623935E+00
-2.7421324E+00  9.2161645E-01  -9.6328024E+00
-2.2962112E+00  -1.7547093E+00  -9.7476780E+00
-2.0643575E+00  -1.6145427E+00  -9.6185016E+00
-3.3738550E-01  -3.7191610E+00  -9.7577286E+00
-1.9712397E-01  -3.4822620E+00  -9.6381703E+00
2.3403396E+00  -4.4440306E+00  -9.7351597E+00
2.3351367E+00  -4.1594660E+00  -9.6398642E+00
5.0189189E+00  -3.7230652E+00  -9.6940048E+00
4.8660964E+00  -3.4778810E+00  -9.6127060E+00
6.9770666E+00  -1.7580157E+00  -9.6677026E+00
6.7317169E+00  -1.6088390E+00  -9.5803748E+00

CELLS 162 486
2 0 1
2 2 3
2 4 5
2 6 7
2 8 9
2 10 11
2 12 13
2 14 15
2 16 17
2 18 19
2 20 21
2 22 23
2 24 25
2 26 27
2 28 29
2 30 31
2 32 33
2 34 35
2 36 37
2 38 39
2 40 41
2 42 43
2 44 45
2 46 47
2 48 49
2 50 51
2 52 53
2 54 55
2 56 57
2 58 59
2 60 61
2 62 63
2 64 65
2 66 67
2 68 69
2 70 71
2 72 73
2 74 75
2 76 77
2 78 79
2 80 81
2 82 83
2 84 85
2 86 87
2 88 89
2 90 91
2 92 93
2 94 95
2 96 97
2 98 99
2 100 101
2 102 103
2 104 105
2 106 107
2 108 109
2 110 111
2 112 113
2 114 115
2 116 117
2 118 119
2 120 121
2 122 123
2 124 125
2 126 127
2 128 129
2 130 131
2 132 133
2 134 135
2 136 137
2 138 139
2 140 141
2 142 143
2 144 145
2 146 147
2 148 149
2 150 151
2 152 153
2 154 155
2 156 157
2 158 159
2 160 161
2 162 163
2 164 165
2 166 167
2 168 169
2 170 171
2 172 173
2 174 175
2 176 177
2 178 179
2 180 181
2 182 183
2 184 185
2 186 187
2 188 189
2 190 191
2 192 193
2 194 195
2 196 197
2 198 199
2 200 201
2 202 203
2 204 205
2 206 207
2 208 209
2 210 211
2 212 213
2 214 215
2 216 217
2 218 219
2 220 221
2 222 223
2 224 225
2 226 227
2 228 229
2 230 231
2 232 233
2 234 235
2 236 237
2 238 239
2 240 241
2 242 243
2 244 245
2 246 247
2 248 249
2 250 251
2 252 253
2 254 255
2 256 257
2 258 259
2 260 261
2 262 263
2 264 265
2 266 267
2 268 269
2 270 271
2 272 273
2 274 275
2 276 277
2 278 279
2 280 281
2 282 283
2 284 285
2 286 287
2 288 289
2 290 291
2 292 293
2 294 295
2 296 297
2 298 299
2 300 301
2 302 303
2 304 305
2 306 307
2 308 309
2 310 311
2 312 313
2 314 315
2 316 317
2 318 319
2 320 321
2 322 323

CELL_TYPES 162
3
3
3
3
3
3
3
3
3
3
3
3
3
3
3
3
3
3
3
3
3
3
3
3
3
3
3
3
3
3
3
3
3
3
3
3
3
3
3
3
3
3
3
3
3
3
3
3
3
3
3
3
3
3
3
3
3
3
3
3
3
3
3
3
3
3
3
3
3
3
3
3
3
3
3
3
3
3
3
3
3
3
3
3
3
3
3
3
3
3
3
3
3
3
3
3
3
3
3
3
3
3
3
3
3
3
3
3
3
3
3
3
3
3
3
3
3
3
3
3
3
3
3
3
3
3
3
3
3
3
3
3
3
3
3
3
3
3
3
3
3
3
3
3
3
3
3
3
3
3
3
3
3
3
3
3
3
3
3
3
3
3

CELL_DATA 162
SCALARS rig_tension_in_N float 1
LOOKUP_TABLE default
2.26e+03
3.08e+03
2.49e+03
1.28e+03
1.89e+03
4.01e+03
3.85e+03
1.64e+03
1.20e+03
2.60e+03
3.27e+03
2.30e+03
-2.01e+03
-9.52e+02
-4.08e+02
-1.31e+03
-1.80e+03
-1.44e+03
-1.26e+03
-1.76e+03
-1.42e+03
-4.75e+02
-1.10e+03
-2.07e+03
-2.15e+02
-8.08e+01
-1.01e+02
-2.48e+02
-2.28e+02
-5.48e+01
-6.64e+01
-2.37e+02
-2.42e+02
-9.20e+01
-7.40e+01
-2.14e+02
1.09e+03
1.54e+03
7.46e+02
1.35e+03
7.90e+02
1.83e+03
1.24e+03
1.86e+03
8.13e+02
1.52e+03
8.32e+02
1.60e+03
-1.36e+02
-1.00e+02
-2.56e+02
-9.01e+01
-1.38e+02
-9.34e+01
-2.71e+02
-8.10e+01
-1.47e+02
-8.70e+01
-2.59e+02
-9.85e+01
2.05e+03
2.06e+03
2.58e+03
2.53e+03
2.84e+03
2.87e+03
3.47e+03
3.47e+03
3.47e+03
4.32e+03
4.32e+03
4.32e+03
4.83e+03
4.83e+03
4.83e+03
9.91e+02
3.64e+02
-2.62e+02
-5.01e+02
-1.93e+02
1.29e+03
6.62e+02
3.62e+01
-3.52e+02
-1.92e+02
1.46e+03
8.38e+02
2.11e+02
-2.64e+02
-1.92e+02
3.75e+03
3.76e+03
3.77e+03
3.78e+03
3.78e+03
3.79e+03
3.80e+03
4.67e+03
4.68e+03
4.69e+03
4.70e+03
4.70e+03
4.71e+03
4.72e+03
5.22e+03
5.23e+03
5.24e+03
5.24e+03
5.25e+03
5.26e+03
5.27e+03
3.64e+03
3.47e+03
3.46e+03
3.46e+03
3.46e+03
4.56e+03
4.36e+03
4.32e+03
4.32e+03
4.32e+03
5.11e+03
4.90e+03
4.83e+03
4.83e+03
4.83e+03
-8.02e+02
-7.93e+02
-8.12e+02
-8.33e+02
-8.47e+02
-8.71e+02
-8.77e+02
-8.68e+02
-8.70e+02
-8.48e+02
-8.13e+02
-8.07e+02
6.77e+01
5.85e+01
8.28e+01
9.49e+01
8.25e+01
4.10e+01
-0.00e+00
-0.00e+00
2.02e+01
6.72e+01
9.43e+01
8.73e+01
4.26e+02
4.26e+02
4.19e+02
4.33e+02
4.57e+02
4.82e+02
4.98e+02
4.96e+02
4.92e+02
4.74e+02
4.41e+02
4.24e+02
SCALARS element_no float 1
LOOKUP_TABLE default
1
2
3
4
5
6
7
8
9
10
11
12
13
14
15
16
17
18
19
20
21
22
23
24
25
26
27
28
29
30
31
32
33
34
35
36
37
38
39
40
41
42
43
44
45
46
47
48
49
50
51
52
53
54
55
56
57
58
59
60
61
62
63
64
65
66
67
67
67
68
68
68
69
69
69
70
70
70
70
70
71
71
71
71
71
72
72
72
72
72
73
73
73
73
73
73
73
74
74
74
74
74
74
74
75
75
75
75
75
75
75
76
76
76
76
76
77
77
77
77
77
78
78
78
78
78
79
80
81
82
83
84
85
86
87
88
89
90
91
92
93
94
95
96
97
98
99
100
101
102
103
104
105
106
107
108
109
110
111
112
113
114
