# vtk DataFile Version 2.0
trawl body or surfaces
ASCII

DATASET UNSTRUCTURED_GRID
POINTS 1902 float
2.8032929E+02  7.3466313E+00  -5.3086744E+01
2.8042679E+02  7.7834652E+00  -5.3358618E+01
2.8942213E+02  6.2042442E+00  -5.4425145E+01
2.9029888E+02  6.0660042E+00  -5.4586227E+01
2.8980013E+02  3.3536889E+00  -5.3050298E+01
2.9441607E+02  4.6219920E+00  -5.4891895E+01
2.9424574E+02  0.0000000E+00  -5.2756288E+01
2.9039604E+02  0.0000000E+00  -5.2725862E+01
2.9714299E+02  3.8412062E+00  -5.4092471E+01
2.9687348E+02  0.0000000E+00  -5.3175700E+01
3.0288462E+02  3.2359476E+00  -5.4126507E+01
3.0251557E+02  0.0000000E+00  -5.3411718E+01
3.0614278E+02  2.0212296E+00  -5.4130229E+01
3.0605021E+02  0.0000000E+00  -5.3505051E+01
3.1920340E+02  2.1454883E-01  -5.4255870E+01
3.1920411E+02  0.0000000E+00  -5.4054786E+01
3.3114785E+02  2.2901408E-01  -5.4224349E+01
3.3114717E+02  0.0000000E+00  -5.4035913E+01
3.3460219E+02  6.7179909E-03  -5.4217068E+01
3.3460211E+02  0.0000000E+00  -5.4210564E+01
3.0259464E+02  0.0000000E+00  -5.5129170E+01
3.0591112E+02  0.0000000E+00  -5.4877088E+01
3.1920563E+02  0.0000000E+00  -5.4459701E+01
3.3114796E+02  0.0000000E+00  -5.4413999E+01
3.3460217E+02  0.0000000E+00  -5.4223525E+01
2.9734419E+02  3.3668244E+00  -5.5190795E+01
2.9055816E+02  6.9892259E+00  -5.5492973E+01
2.9106741E+02  6.8353988E+00  -5.5485916E+01
2.9157652E+02  6.6809437E+00  -5.5483878E+01
2.9208579E+02  6.5271165E+00  -5.5489402E+01
2.9259465E+02  6.3723362E+00  -5.5501379E+01
2.9310236E+02  6.2142244E+00  -5.5517994E+01
2.9360869E+02  6.0522892E+00  -5.5539114E+01
2.9411376E+02  5.8870293E+00  -5.5564156E+01
2.9461698E+02  5.7159317E+00  -5.5587317E+01
2.9511573E+02  5.5319864E+00  -5.5607986E+01
2.9560738E+02  5.3301179E+00  -5.5629075E+01
2.9608903E+02  5.1050087E+00  -5.5644344E+01
2.9656040E+02  4.8587674E+00  -5.5636354E+01
2.9700310E+02  4.5655773E+00  -5.5613240E+01
2.9735916E+02  4.1808353E+00  -5.5533458E+01
2.9753180E+02  3.7049002E+00  -5.5376219E+01
2.9886824E+02  0.0000000E+00  -5.5296739E+01
2.9775427E+02  2.8842804E+00  -5.5222262E+01
2.9815312E+02  2.3917662E+00  -5.5241238E+01
2.9847729E+02  1.8472362E+00  -5.5261132E+01
2.9870068E+02  1.2541136E+00  -5.5278298E+01
2.9882502E+02  6.3251882E-01  -5.5290490E+01
2.7797047E+02  8.1766945E+00  -5.3104481E+01
2.1973264E+02  2.3103385E+01  -4.9532808E+01
8.0000000E+01  3.5000000E+00  2.0000000E+00
2.3006058E+02  2.7593558E+01  -5.4167296E+01
2.3003177E+02  2.7343513E+01  -5.6000170E+01
2.3286284E+02  2.7018205E+01  -5.6000544E+01
2.3289119E+02  2.7258159E+01  -5.4166569E+01
2.3081301E+02  2.7122751E+01  -5.5048387E+01
2.3360968E+02  2.6918723E+01  -5.5066197E+01
2.8928354E+02  7.7060514E+00  -5.5827401E+01
2.9886777E+02  0.0000000E+00  -5.5850015E+01
2.9882289E+02  5.7334234E-01  -5.5850013E+01
2.9869633E+02  1.1343406E+00  -5.5850013E+01
2.9849537E+02  1.6731840E+00  -5.5850007E+01
2.9823380E+02  2.1853323E+00  -5.5845130E+01
2.9792510E+02  2.6703243E+00  -5.5830119E+01
2.9757691E+02  3.1274064E+00  -5.5806052E+01
2.9724393E+02  3.5080412E+00  -5.5831764E+01
2.9688816E+02  3.8681117E+00  -5.5846052E+01
2.9651400E+02  4.2093042E+00  -5.5850008E+01
2.9612233E+02  4.5302690E+00  -5.5850013E+01
2.9571494E+02  4.8310467E+00  -5.5850013E+01
2.9529469E+02  5.1135680E+00  -5.5850013E+01
2.9486376E+02  5.3795164E+00  -5.5850013E+01
2.9442382E+02  5.6303034E+00  -5.5850014E+01
2.9397619E+02  5.8670738E+00  -5.5850013E+01
2.9352190E+02  6.0908179E+00  -5.5850013E+01
2.9306192E+02  6.3026138E+00  -5.5850012E+01
2.9259712E+02  6.5036466E+00  -5.5850012E+01
2.9212829E+02  6.6950739E+00  -5.5850011E+01
2.9165605E+02  6.8779395E+00  -5.5850011E+01
2.9118092E+02  7.0531518E+00  -5.5850011E+01
2.9070330E+02  7.2214964E+00  -5.5850007E+01
3.3114735E+02  8.2732115E-02  -5.4090670E+01
3.3114760E+02  1.5706862E-01  -5.4156231E+01
3.3214300E+02  2.2745033E-01  -5.4222348E+01
3.3313813E+02  2.2529821E-01  -5.4220645E+01
3.3460217E+02  5.6377218E-03  -5.4213914E+01
3.3460231E+02  3.1109247E-03  -5.4211745E+01
3.3363496E+02  0.0000000E+00  -5.4032690E+01
3.3263987E+02  0.0000000E+00  -5.4032908E+01
3.3164530E+02  1.9270574E-01  -5.4188808E+01
3.3164504E+02  1.2025000E-01  -5.4121115E+01
3.3214274E+02  1.5630094E-01  -5.4153206E+01
3.3264043E+02  1.9122259E-01  -5.4186526E+01
3.3164479E+02  4.3931522E-02  -5.4057847E+01
3.3214246E+02  8.3303396E-02  -5.4085990E+01
3.3264015E+02  1.2047713E-01  -5.4116825E+01
3.3313783E+02  1.5523353E-01  -5.4150278E+01
3.3363552E+02  1.8764156E-01  -5.4185924E+01
3.3263987E+02  4.6351034E-02  -5.4050702E+01
3.3313755E+02  8.4235104E-02  -5.4080724E+01
3.3363521E+02  1.2055210E-01  -5.4112605E+01
3.3413288E+02  1.4965654E-01  -5.4151097E+01
3.3363494E+02  4.8429106E-02  -5.4044145E+01
3.3413239E+02  9.3633440E-02  -5.4066918E+01
3.3114789E+02  1.5577390E-01  -5.4291183E+01
3.3114793E+02  7.8712305E-02  -5.4353621E+01
3.3214308E+02  0.0000000E+00  -5.4413588E+01
3.3313816E+02  0.0000000E+00  -5.4412319E+01
3.3460190E+02  3.1657221E-03  -5.4222517E+01
3.3460192E+02  5.5340854E-03  -5.4220172E+01
3.3412594E+02  1.5803778E-01  -5.4234058E+01
3.3413264E+02  1.2868692E-01  -5.4341036E+01
3.3363559E+02  1.6318787E-01  -5.4299040E+01
3.3313812E+02  1.9465580E-01  -5.4259668E+01
3.3412544E+02  1.2317058E-02  -5.4373780E+01
3.3363492E+02  1.0060611E-01  -5.4379814E+01
3.3313810E+02  1.2221695E-01  -5.4327779E+01
3.3264057E+02  1.5710730E-01  -5.4292169E+01
3.3214301E+02  1.9329508E-01  -5.4258299E+01
3.3313813E+02  4.4846699E-02  -5.4390343E+01
3.3264059E+02  8.1211260E-02  -5.4356297E+01
3.3214304E+02  1.1850964E-01  -5.4323534E+01
3.3164546E+02  1.5591240E-01  -5.4291105E+01
3.3214306E+02  4.0498313E-02  -5.4384900E+01
3.3164549E+02  7.8956305E-02  -5.4353685E+01
2.8066484E+02  7.4110756E+00  -5.3108874E+01
2.8103393E+02  7.5003583E+00  -5.3131911E+01
2.8095521E+02  7.8565841E+00  -5.3239787E+01
2.8057549E+02  7.8787902E+00  -5.3246960E+01
2.8103793E+02  7.6844310E+00  -5.3422238E+01
2.8171691E+02  7.5740640E+00  -5.3493089E+01
2.8239551E+02  7.4622209E+00  -5.3565137E+01
2.8307391E+02  7.3496480E+00  -5.3637749E+01
2.8375177E+02  7.2351384E+00  -5.3712252E+01
2.8442911E+02  7.1189754E+00  -5.3788603E+01
2.8510607E+02  7.0016015E+00  -5.3866349E+01
2.8574945E+02  6.8871296E+00  -5.3943978E+01
2.8645775E+02  6.7603218E+00  -5.4030309E+01
2.8713266E+02  6.6370600E+00  -5.4115774E+01
2.8780663E+02  6.5113492E+00  -5.4204619E+01
2.8848018E+02  6.3844590E+00  -5.4295010E+01
2.9032389E+02  5.9803598E+00  -5.4489440E+01
2.9045034E+02  6.0361532E+00  -5.4252175E+01
2.9064195E+02  6.1000666E+00  -5.3962671E+01
2.9068440E+02  5.9849798E+00  -5.3731061E+01
2.9062828E+02  5.7762028E+00  -5.3642930E+01
2.9055731E+02  5.5001881E+00  -5.3594640E+01
2.9047728E+02  5.2128638E+00  -5.3577954E+01
2.9038347E+02  4.9201896E+00  -5.3615043E+01
2.9028220E+02  4.6131034E+00  -5.3653723E+01
2.9018820E+02  4.3235782E+00  -5.3575265E+01
2.9009010E+02  4.0651167E+00  -5.3439713E+01
2.8998042E+02  3.8293549E+00  -5.3289163E+01
2.8985574E+02  3.5296751E+00  -5.3175620E+01
2.8938836E+02  3.6077513E+00  -5.3070535E+01
2.8901363E+02  3.8380047E+00  -5.3089701E+01
2.8863343E+02  4.0593779E+00  -5.3105352E+01
2.8824387E+02  4.2643384E+00  -5.3112355E+01
2.8784608E+02  4.4529581E+00  -5.3111267E+01
2.8744359E+02  4.6312827E+00  -5.3106542E+01
2.8703907E+02  4.8049337E+00  -5.3101462E+01
2.8663301E+02  4.9749920E+00  -5.3096528E+01
2.8622571E+02  5.1420377E+00  -5.3091887E+01
2.8581731E+02  5.3063833E+00  -5.3087653E+01
2.8540795E+02  5.4683612E+00  -5.3083936E+01
2.8499777E+02  5.6282450E+00  -5.3080792E+01
2.8458688E+02  5.7863223E+00  -5.3078257E+01
2.8417534E+02  5.9427065E+00  -5.3076355E+01
2.8376330E+02  6.0977863E+00  -5.3075069E+01
2.8335083E+02  6.2517055E+00  -5.3074383E+01
2.8293794E+02  6.4045151E+00  -5.3074296E+01
2.8252471E+02  6.5563934E+00  -5.3074791E+01
2.8211113E+02  6.7072912E+00  -5.3075866E+01
2.8169723E+02  6.8573164E+00  -5.3077507E+01
2.8128300E+02  7.0064502E+00  -5.3079702E+01
2.8086846E+02  7.1546815E+00  -5.3082416E+01
2.8117096E+02  7.8057479E+00  -5.3236125E+01
2.8144851E+02  7.8022452E+00  -5.3292479E+01
2.8152112E+02  7.6572539E+00  -5.3234812E+01
2.8165892E+02  7.6965754E+00  -5.3237962E+01
2.8194071E+02  7.8563154E+00  -5.3222816E+01
2.8223899E+02  7.6199532E+00  -5.3440273E+01
2.8118455E+02  7.4712102E+00  -5.3139770E+01
2.8165914E+02  7.6196228E+00  -5.3192175E+01
2.8214432E+02  7.5769137E+00  -5.3247185E+01
2.8242998E+02  7.9483224E+00  -5.3176213E+01
2.8272592E+02  7.6994967E+00  -5.3358627E+01
2.8081383E+02  7.3891000E+00  -5.3099907E+01
2.8130756E+02  7.4646836E+00  -5.3123640E+01
2.8180106E+02  7.5401125E+00  -5.3152009E+01
2.8229839E+02  7.5890809E+00  -5.3169066E+01
2.8278662E+02  7.6960662E+00  -5.3154800E+01
2.8321249E+02  7.7627409E+00  -5.3262339E+01
2.8351941E+02  7.4526740E+00  -5.3506598E+01
2.8130121E+02  7.2775568E+00  -5.3094703E+01
2.8179202E+02  7.3720276E+00  -5.3109014E+01
2.8228377E+02  7.4606277E+00  -5.3127536E+01
2.8277598E+02  7.5450871E+00  -5.3152247E+01
2.8327009E+02  7.5850297E+00  -5.3217580E+01
2.8370122E+02  7.8363512E+00  -5.3186546E+01
2.8400545E+02  7.5015305E+00  -5.3399472E+01
2.8431227E+02  7.2201714E+00  -5.3676433E+01
2.8172057E+02  7.1112198E+00  -5.3089670E+01
2.8220823E+02  7.2212302E+00  -5.3101365E+01
2.8269703E+02  7.3258281E+00  -5.3114434E+01
2.8318778E+02  7.4213486E+00  -5.3122609E+01
2.8367862E+02  7.5167423E+00  -5.3124758E+01
2.8414748E+02  7.6812870E+00  -5.3068970E+01
2.8448912E+02  7.5265663E+00  -5.3274972E+01
2.8479821E+02  7.2618287E+00  -5.3565460E+01
2.8213543E+02  6.9598771E+00  -5.3076278E+01
2.8262297E+02  7.0710087E+00  -5.3074132E+01
2.8311169E+02  7.1765888E+00  -5.3067880E+01
2.8360096E+02  7.2793800E+00  -5.3058395E+01
2.8409113E+02  7.3734390E+00  -5.3028340E+01
2.8456701E+02  7.4701110E+00  -5.2909134E+01
2.8496879E+02  7.5172963E+00  -5.3134002E+01
2.8528363E+02  7.2890329E+00  -5.3448289E+01
2.8559091E+02  7.0412606E+00  -5.3755207E+01
2.8254927E+02  6.8100128E+00  -5.3071397E+01
[...]
CELL_DATA 3487
SCALARS u_tension_in_N double 1
LOOKUP_TABLE default
7.73684
1.51384
1.51384
2.59136
1.4112
3.11051
-0
3.11051
1.68837
-0
2.59136
0.558816
2.1651
1.4112
0.997106
0.558816
-0
2.28706
0.380511
2.66105
-0
-0
2.66105
3.20279
3.01048
3.01048
2.77902
3.48094
3.20279
3.20157
4.12473
3.95182
3.20157
3.48094
2.57853
3.04848
2.57853
3.04848
2.12271
2.59526
2.69274
2.24484
2.69274
4.12473
3.59423
3.68693
4.61267
3.68693
3.06228
3.2289
4.16416
3.59423
4.16416
2.32148
3.95182
2.77902
4.61267
2.1651
-0
-0
-0
-0
-0
-0
-0
1.65474
2.28706
0.599037
0.599037
1.04208
0.217909
1.76525
1.65474
1.76525
-0
0.997106
-0
-0
-0
-0
-0
-0
1.04208
-0
-0
0.217909
-0
0.319084
0.0295769
-0
-0
0.134165
0.319084
-0
1.40875
2.12271
1.865
1.66481
1.66481
1.32342
2.14637
1.865
2.59526
3.06228
1.88
2.61405
3.2289
2.77547
1.88
1.70618
2.61405
2.14637
3.70245
1.20027
2.32148
1.20027
0.94899
1.44897
0.712477
1.28718
1.44897
0.819034
1.70618
2.77547
2.17374
2.3278
3.24393
2.3278
1.744
1.8872
2.78866
2.17374
2.78866
1.03004
1.32342
1.40875
3.24393
2.4178
2.24484
3.70245
6.39117
6.695
6.695
5.95361
7.80047
6.39117
8.88301
11.4616
10.2198
8.88301
7.80047
6.24606
7.34456
6.24606
7.34456
5.77324
6.85971
8.33189
5.48499
8.33189
11.4616
9.83406
10.9813
13.8785
10.9813
9.24327
10.4583
13.3644
9.83406
13.3644
7.91733
10.2198
5.95361
13.8785
19.0079
45.0688
45.0688
18.5126
70.7612
19.0079
29.6391
-0
-0
65.5052
70.7612
65.5052
70.2327
44.544
17.8297
43.9343
70.2327
44.544
64.9601
-0
57.9069
128.643
64.9601
69.6465
29.6391
18.5126
12.9069
6.85971
5.01695
5.29917
5.29917
4.54815
6.36805
5.01695
7.91733
10.4583
7.40694
9.91634
8.72327
7.40694
17.8297
6.36805
12.9069
4.82085
9.24327
5.86632
4.82085
5.86632
5.3488
6.33772
6.78901
4.33404
6.78901
9.91634
8.28081
9.35129
12.2172
9.35129
8.75918
11.0544
11.5904
8.28081
11.5904
7.64423
8.72327
4.54815
12.2172
69.6465
17.2825
43.2634
43.2634
16.5854
-0
17.2825
-0
137.953
84.9803
43.9343
31.3453
-0
-0
16.5854
3.99284
5.77324
5.48499
0.134165
0.94899
0.00915223
0.00915223
0.487071
0.445994
0.0295769
0.487071
-0
0.712477
-0
0.841292
0.195087
-0
1.03004
-0
1.28718
0.433313
0.819034
0.433313
0.697627
0.697627
0.582189
0.335663
0.335663
0.195087
0.215567
0.0357616
0.841292
0.0357616
0.582189
0.441801
0.110338
0.215567
0.596328
0.401331
0.445994
0.110338
1.8872
1.32685
1.32685
0.149608
0.865904
1.45501
0.596328
1.45501
3.99284
1.96777
5.3488
3.83421
4.81331
6.33772
3.49971
4.33404
1.96777
2.4178
1.0109
0.865904
1.0109
0.242086
0.343076
1.40179
0.312738
1.40179
3.83421
3.07611
3.31779
4.81331
3.31779
2.45988
2.79275
4.16373
3.07611
5.78273
0.966403
3.49971
0.149608
4.16373
0.779054
1.744
0.779054
1.87054
-0
0.980293
0.980293
0.441801
0.312738
0.76436
0.533121
0.765199
0.765199
0.343076
0.76436
0.242086
0.401331
1.19976
1.19976
1.53096
1.53096
1.31208
1.31208
0.570417
0.570417
0.781468
0.7354
0.491374
0.709503
-0
0.491374
0.709503
0.781468
0.533121
0.7354
2.45988
0.875967
1.05504
1.05504
2.94478
1.86141
0.875967
1.86141
2.40521
2.40521
3.2414
3.63395
4.56258
3.05055
3.05055
3.2414
2.94478
3.63395
0.710657
2.79275
4.76837
-0
29.6532
0.304252
-0
0.710657
-0
-0
10.9725
13.708
4.76837
-0
0.966403
-0
8.75918
7.0827
7.0827
5.32312
6.51115
8.14316
5.78273
8.14316
20.5891
-0
14.8585
11.0544
-0
4.78499
6.26821
1.19404
1.80258
4.78499
10.0499
6.51115
5.32312
7.64423
-0
-0
-0
-0
-0
-0
-0
-0
-0
-0
-0
-0
-0
-0
-0
315.927
63.4601
-0
-0
-0
-0
1.24758
1.84398
-0
-0
-0
70.285
-0
-0
-0
-0
-0
-0
-0
-0
-0
-0
-0
-0
-0
-0
-0
-0
-0
-0
-0
-0
1.45413
-0
1.45413
0.496545
-0
8.77402
6.93766
10.1556
8.77402
6.93766
0.496545
6.75047
-0
-0
-0
3.79258
70.285
-0
34.9939
-0
28.3878
1.24758
68.3315
68.3315
27.3754
67.6187
0.992497
28.3878
0.992497
15.4218
1.84398
15.4218
5.30135
183.041
-0
75.9034
27.3754
14.7042
0.651646
26.2312
66.929
0.804111
75.9034
67.6187
85.8866
163.743
0.804111
3.79258
1.64945
3.53992
1.38924
1.64945
3.53992
10.1556
6.69435
24.4518
6.47482
6.47482
6.69435
9.002
3.27649
6.75047
3.6215
1.43965
9.10116
1.13839
3.6215
-0
-0
16.5958
3.27649
1.38924
14.7042
-0
9.002
-0
0.0134361
-0
-0
0.191683
0.894734
-0
0.349976
0.348653
0.349976
0.0134361
-0
-0
-0
-0
-0
-0
-0
-0
-0
-0
-0
-0
-0
0.131525
-0
0.131525
-0
-0
0.348653
0.206424
0.206424
0.384076
0.384076
-0
0.170295
-0
-0
-0
-0
-0
0.366289
0.366289
-0
0.230217
0.230217
-0
-0
0.170295
-0
-0
-0
-0
-0
0.438643
-0
0.438643
-0
-0
-0
-0
3.25372
-0
-0
-0
18.8878
-0
6.02185
-0
-0
6.02185
-0
2.65306
-0
0.414834
-0
-0
-0
-0
0.293295
0.293295
-0
0.22933
-0
24.9274
20.3145
-0
12.7029
0.912112
11.3029
85.8866
-0
38.1673
38.4435
9.95646
38.1673
11.3029
38.4435
6.91735
6.91735
3.2045
4.99952
4.70277
4.84589
9.95646
5.97666
5.97666
4.47171
5.52008
8.49994
4.84589
38.1578
5.09276
6.75922
8.49994
75.2808
85.217
74.6427
84.6984
85.217
84.6984
13.8194
13.8194
74.1208
74.1208
12.3153
13.0925
74.6427
13.0925
84.9576
75.2808
73.2881
38.014
84.5302
37.2282
38.014
84.5302
11.4764
73.2881
10.3264
72.7005
14.5525
10.3264
72.7005
11.4764
83.9032
84.9576
38.1578
12.3153
8.05111
95.3066
3.67434
7.61167
64.1436
8.62651
5.09276
4.17444
7.3177
8.8401
8.8401
5.52008
4.17444
4.47171
40.3729
8.05111
40.3729
32.4299
32.4299
7.3177
33.2086
67.2729
35.0172
33.2086
35.0172
7.65559
-0
67.2729
83.9032
9.99259
9.99259
38.2945
7.65559
42.6422
86.0438
86.0438
212.329
56.0209
56.0209
10.0967
42.6422
77.8314
37.2282
123.279
73.9413
125.544
73.9413
125.544
-0
123.551
283.924
553.751
123.279
77.8314
38.2945
-0
66.929
25.2837
66.1202
24.1372
25.2837
66.1202
1.13839
0.303368
3.45619
-0
0.457339
1.43965
0.457339
0.651646
65.474
65.474
0.189256
-0
23.1214
0.189256
-0
-0
0.455652
0.303368
24.1372
80.975
-0
35.1082
27.6514
27.6514
127.446
11.4626
23.1214
80.975
6.63834
26.2312
8.82495
7.76078
-0
10.0015
7.76078
8.82495
15.3509
6.34189
11.9682
-0
-0
22.7164
-0
11.8013
9.05104
9.05104
11.8013
9.04443
9.40587
-0
8.61982
6.06478
6.06478
10.8673
8.58005
10.8673
8.25343
10.4767
8.61982
9.51225
5.44308
9.40587
18.2724
8.58005
3.11427
9.04443
-0
-0
-0
-0
-0
-0
0.245351
3.60724
-0
0.245351
3.96118
-0
-0
-0
-0
2.21331
-0
-0
1.35973
1.35973
0.045964
0.1418
0.878495
0.878495
0.751173
0.213665
0.045964
2.35873
5.89561
2.35873
9.93108
-0
2.41639
0.751173
5.03744
0.213665
4.77487
-0
10.3528
8.12846
3.60724
9.51095
9.51095
11.6185
10.3938
10.3528
11.6185
8.12846
4.77487
9.16074
9.16074
9.95543
10.3938
11.5296
-0
19.0518
-0
9.95543
8.67895
11.5296
9.51225
22.1322
5.40654
5.40654
13.1469
5.8837
34.8961
-0
33.5426
-0
5.8837
11.7438
2.41639
14.296
14.296
-0
27.6762
-0
32.4129
13.1469
11.7438
3.96118
4.24597
10.4767
-0
33.1178
20.4218
34.3673
-0
6.26457
12.9578
70.6504
12.9578
34.3673
-0
-0
0.89088
2.08199
-0
-0
0.89088
39.1727
0.68457
19.1266
0.578488
19.389
19.389
0.68457
0.759469
0.759469
0.691162
0.450915
0.578488
0.691162
18.8135
0.763785
19.1266
0.763785
109.532
131.893
120.535
2.14875
7.87965
11.4643
6.79372
7.87965
11.4643
131.893
14.3615
194.082
156.028
194.082
6.79372
154.815
6.00258
154.815
10.5933
184.751
6.00258
32.3945
32.3945
18.4238
18.8135
0.303878
18.4238
0.303878
-0
17.9748
0.63199
31.4298
0.450915
31.4298
31.4299
51.1036
9.24073
9.24073
31.4299
24.3483
-0
-0
17.9748
10.5933
33.1178
0.286289
-0
2.68312
2.68312
5.44308
8.22664
8.22664
10.0197
7.83204
5.05647
10.0197
5.05647
3.11427
4.62562
2.46124
4.39709
4.62562
9.6936
7.50255
-0
-0
7.50255
14.3545
2.24813
7.83204
2.46124
9.6936
7.92695
7.92695
-0
8.67895
14.9494
16.5506
-0
18.6165
8.25343
1.98949
2.24813
-0
1.01162
-0
1.98949
3.40672
-0
4.39709
8.3067
0.63199
14.8712
9.15722
-0
7.05306
-0
9.15722
13.3321
11.1585
-0
5.21553
-0
7.05306
6.30343
6.61712
8.62629
6.61712
5.89688
6.18747
8.00281
6.30343
8.00281
8.22896
8.62629
7.5508
19.288
-0
25.1062
-0
13.4627
15.9212
15.5894
-0
13.7559
-0
11.8121
24.4328
13.7559
14.2324
15.5894
13.5071
15.3988
14.3037
13.5071
15.3988
14.2324
13.0722
26.2049
13.4627
-0
9.52885
22.5836
9.52885
126.859
29.1867
29.1867
50.4686
-0
-0
49.4794
49.2922
15.3864
50.4686
29.746
15.3864
29.0543
48.6503
48.6503
27.8183
19.5803
29.746
47.1973
19.1425
-0
-0
19.1425
18.4798
6.9542
19.5803
47.5312
49.2922
29.0543
12.6543
14.3037
11.3546
12.1909
12.1909
10.5993
13.337
11.8121
12.6543
47.5312
11.5873
11.5873
12.403
10.532
26.5134
13.337
26.5134
11.3442
27.8183
11.3442
9.85778
10.5185
10.5185
9.03948
11.4878
10.5993
12.403
25.3897
9.48567
9.48567
10.6058
23.5007
24.294
11.4878
24.294
9.73131
10.532
11.3546
25.3897
16.6457
46.3413
17.0872
17.0872
44.9882
15.8459
46.3413
16.6457
2.58425
2.85518
2.70611
2.58425
2.69669
2.81243
15.8459
2.1885
15.6448
18.4798
19.2399
43.7121
26.5874
-0
18.1903
18.1903
43.7118
-0
2.92578
19.2399
-0
2.1885
28.8202
15.6448
44.9882
8.47006
13.0722
9.85778
-0
10.6421
-0
4.89817
-0
2.6647
2.6647
0.664911
4.5802
2.0209
6.09859
4.89817
5.21553
3.73446
3.73446
-0
7.43676
-0
15.4993
4.82111
6.18747
5.49612
5.49612
4.43023
5.09982
5.69052
4.82111
5.69052
3.34488
5.89688
3.34488
7.11301
6.65858
7.11301
4.20207
2.95482
7.43676
6.65858
5.09982
4.0426
4.0426
2.56346
3.65821
4.64022
2.95482
5.34859
2.56346
4.43023
4.5802
4.64022
2.28645
-0
-0
6.25616
-0
0.664911
2.28645
0.397695
1.91416
0.397695
0.183388
1.91416
-0
4.20207
0.239825
6.26991
0.239825
0.427734
0.427734
0.183388
3.7715
1.61352
1.43813
1.43813
3.23587
3.41606
1.61352
3.41606
8.50363
3.7715
2.10627
6.26991
1.76107
5.8983
5.48029
1.76107
5.8983
2.10627
4.25112
3.34149
2.96329
2.96329
3.48106
3.86464
3.34149
3.86464
1.47044
3.65821
2.52848
5.13172
5.13172
1.16487
5.48029
1.16487
3.1006
2.52848
2.20413
3.1006
2.16665
2.16665
2.20413
3.48106
1.47044
3.23587
4.25112
0.275304
5.26248
9.03948
6.99622
6.29437
6.99622
5.00623
8.26548
5.34859
6.29437
10.6058
8.87558
8.87558
7.50055
8.027
9.48518
8.26548
9.48518
7.50055
9.73131
5.72231
5.72231
5.17571
4.60405
6.01383
6.62038
4.60405
6.62038
8.54916
7.32846
-0
13.0268
5.29088
5.29088
7.32846
8.54916
8.027
5.00623
16.1502
23.5007
7.57032
-0
28.4451
4.89998
83.1307
7.57032
54.534
28.4451
54.534
40.3773
6.78294
-0
6.78294
5.17571
8.47006
6.01383
4.65895
3.82013
3.82013
8.87693
4.65895
4.20899
3.68957
-0
-0
10.5389
3.68957
2.74694
4.34973
-0
-0
6.77417
2.43773
2.74694
2.43773
4.34973
4.20899
7.5508
13.1182
12.5725
22.2629
23.5851
12.2042
23.5851
22.2629
30.1909
20.4388
30.1909
28.9286
11.2653
12.5725
30.9316
30.9305
20.4388
11.9259
12.2042
2.45405
2.64657
2.45405
4.083
6.40061
6.40061
2.1219
6.72839
13.1182
2.30525
6.72843
2.30525
4.20842
2.64657
1.72812
2.56748
2.50175
3.66395
2.2927
1.90635
4.40642
3.07613
3.51121
3.66395
2.50175
2.1219
5.40999
5.91152
1.91333
1.91333
5.40999
5.91152
4.95731
10.4425
1.5524
4.95731
4.49503
1.5524
9.46805
1.7207
10.4425
1.7207
2.13313
2.13313
3.38195
3.38195
1.67342
3.07613
1.99062
3.51121
2.38046
3.87034
2.35152
1.99062
3.03585
1.26527
2.2927
11.2653
18.8519
4.38599
4.78973
4.38599
3.90711
4.78973
5.48306
5.48318
6.91614
6.91608
28.9286
10.7068
6.30461
18.8519
5.15707
6.30461
9.83855
9.83855
26.7425
27.6754
4.18574
10.7068
5.15707
27.6754
3.96331
3.72595
3.72612
3.40827
3.40827
3.96331
2.98834
3.03129
3.03129
2.70635
3.01236
2.98857
3.01236
3.12223
3.12223
3.39291
3.39291
7.63675
8.44695
2.64963
4.18574
2.54926
2.82849
2.54926
7.63675
2.64969
2.70635
8.44695
3.90711
17.33
17.33
2.22128
8.54434
8.54434
4.49503
15.5057
25.8043
-0
7.35903
14.231
15.5057
26.7425
0.31272
-0
9.46805
-0
-0
46.3054
16.2638
25.9072
25.8043
11.9259
1.79878
2.70353
1.52535
0.815085
1.6794
0.667635
2.22861
1.27006
1.78719
1.60525
2.05568
2.22861
1.78719
1.06073
3.36564
1.60525
0.505413
1.77248
1.58152
3.13101
1.58152
1.14586
1.64343
1.77248
2.31144
1.64343
1.41175
1.41938
1.24382
1.2265
1.2265
1.41175
1.51941
1.38903
1.1643
1.38903
1.1643
1.28919
1.24382
1.28919
1.00705
1.51941
1.41938
1.57611
1.45379
-0
2.1547
9.76328
5.00717
1.06073
0.768809
0.876002
0.620091
0.768809
0.876002
-0
2.05568
16.7445
-0
4.03406
5.82122
21.3838
4.03406
0.620091
1.80777
0.635468
0.497066
1.80777
0.732882
3.28291
2.1547
0.732882
1.00705
1.91299
0.82551
1.28029
1.91299
1.0457
1.09782
0.972187
0.972187
0.855663
1.0457
0.937841
1.28029
1.45379
0.82551
1.12272
1.12272
1.65315
1.75999
0.660293
0.760805
0.681663
0.681663
0.526138
0.535626
0.594512
0.660293
0.760805
1.00928
0.855663
1.75999
0.594512
0.473723
0.858318
1.09782
1.61349
2.58523
0.395971
2.27966
1.15463
1.15463
0.781121
1.45191
1.11152
-0
1.11152
0.971547
1.45191
0.937841
2.31629
0.814683
0.971547
0.814683
0.801711
0.609032
1.13174
1.13174
1.79369
0.645057
-0
0.645057
0.440822
0.897197
0.750041
0.498408
0.897197
-0
0.850282
1.76206
0.842827
0.850282
0.608804
0.801711
0.609032
-0
0.658323
0.781121
0.497066
3.28291
5.82122
1.42165
2.77802
5.53042
1.42165
0.635468
0.392892
0.554941
0.554941
0.392892
1.65315
0.34815
14.6214
2.77802
1.01283
1.01283
0.34815
1.66322
0.579761
2.16903
0.661865
0.579761
2.16903
0.306113
5.53042
1.66322
0.526138
0.977072
0.473723
0.420511
0.431991
0.535626
0.658323
0.313149
0.750041
0.366382
0.534831
0.498408
0.354787
0.440822
0.431991
1.19295
0.393886
0.453555
1.19295
0.420511
0.313149
0.295197
0.366382
0.446787
0.253755
0.595376
0.224215
0.534831
0.453555
0.354787
0.977072
0.595376
1.62299
1.00928
0.661865
3.24375
3.24375
1.62299
0.393886
0.77718
0.681218
0.681218
0.77718
0.295197
4.63129
0.306113
2.21941
4.63129
2.21941
2.3321
0.640726
0.640726
0.348124
2.3321
0.348124
0.570821
0.570821
0.446787
0.313689
0.606939
1.00707
0.313689
0.606939
0.483269
0.263262
0.568667
0.496273
0.263262
0.568667
0.990653
0.253755
0.990653
1.47704
1.2625
1.47704
1.2625
0.681017
0.292924
0.420658
0.420658
1.03131
0.573321
0.292924
0.573321
0.496273
1.00707
0.681017
0.224215
0.483269
0.842827
0.492023
0.775647
0.360286
0.492023
0.360286
0.60179
0.775647
0.60179
0.454113
0.630876
-0
0.630876
-0
0.646205
0.321879
0.710663
0.51966
0.51966
0.646205
0.771936
0.39804
0.768932
0.481312
0.39804
0.768932
0.885054
0.454113
0.321879
0.771936
0.272341
2.15545
0.775837
4.04846
1.18458
-0
11.1206
0.687439
0.775837
0.710663
1.53223
0.481312
1.03332
1.03332
2.06351
0.476868
0.707351
0.687439
1.05317
1.05317
1.80187
0.707351
0.696304
2.06351
0.885054
1.80187
0.955519
2.98214
2.98214
1.87189
1.87189
3.91487
3.75474
0.572787
3.75474
3.91487
0.955519
0.476868
0.696304
-0
4.29682
4.93154
4.29682
0.572787
11.9338
2.57105
11.9338
11.0162
4.93154
22.964
6.50516
4.83884
7.19068
15.2759
-0
4.83884
4.04846
1.03131
0.608804
2.14161
7.81139
7.01456
1.91042
10.0208
10.0208
7.65161
7.65161
4.931
5.93292
5.3798
5.26828
5.3798
4.931
7.51926
7.81139
7.51926
5.93292
8.48047
8.48047
7.72833
6.91962
6.91962
6.25717
7.72833
6.68395
6.25717
7.07077
8.34658
7.70249
7.07077
8.34658
6.68395
5.0737
5.0737
4.72818
4.72818
5.65637
4.76154
5.92465
6.30008
5.92465
5.65637
6.30008
5.48643
5.48643
4.93152
4.76154
5.22256
5.74101
5.22256
4.93152
5.74101
6.53172
5.79203
6.53172
6.88637
5.79203
5.9084
6.88637
6.14856
5.34839
5.9084
4.97572
5.34839
4.97572
4.78369
4.50408
5.00847
4.57356
4.50408
5.4144
5.4144
4.78369
7.70249
5.42291
6.14856
5.42291
5.00847
5.53214
5.53214
4.99738
4.94422
4.94422
4.1532
4.64517
4.17136
4.1532
4.17136
4.53793
4.09477
3.74399
4.64517
3.74399
4.99738
4.57356
4.53793
5.04282
4.48034
4.09477
4.4251
4.00687
4.48034
5.04282
4.4251
3.59164
4.00687
4.0071
3.59164
3.91147
3.91147
3.43107
3.479
4.0071
3.479
3.68253
3.68253
3.35888
3.35888
3.23568
3.23568
2.97514
3.11011
3.46162
2.97514
3.43107
3.11011
2.91305
2.91305
2.79391
2.42624
2.51468
2.13289
2.42624
2.79391
2.51468
2.92421
2.92421
2.94425
2.46392
2.94425
2.46392
2.13289
3.46162
1.95931
2.3053
2.21614
1.7605
1.7605
2.21614
2.3053
1.95931
1.95784
1.95784
1.59076
1.33758
1.59076
0.784043
1.27048
0.784043
1.79126
0.890906
1.3015
1.27048
1.67023
0.890906
1.83313
0.326963
0.840663
1.83313
0.326963
0.840663
-0
-0
-0
0.177021
0.177021
1.20631
1.20631
-0
0.805565
-0
-0
1.67023
14.41
6.93546
-0
10.4978
7.37609
7.37609
-0
6.93546
7.55214
9.90586
16.4749
2.34095
4.61943
4.61943
5.22699
5.22699
3.85093
8.91272
8.91272
7.55214
4.50211
7.08532
8.64642
0.135272
6.0155
0.74175
-0
6.0155
4.60404
1.55182
7.08532
4.09498
4.50211
4.88438
4.09498
4.19866
4.39845
3.56662
3.64869
3.4131
4.19866
4.88438
3.64869
3.91177
10.2541
3.85093
11.5627
-0
4.09512
4.09512
31.273
8.96179
8.96179
60.3377
-0
320.835
31.273
3.33021
2.84703
3.33021
2.84703
2.3866
2.35361
3.33328
2.35361
-0
2.73904
2.39089
3.33328
4.81036
173.746
-0
6.74824
-0
345.67
-0
173.746
2.39089
2.3866
3.56662
-0
0.80983
4.75748
11.5639
8.45041
-0
-0
4.75748
8.45041
-0
-0
0.532658
0.74175
4.34912
4.34912
0.44394
0.44394
0.532054
3.37339
3.37339
0.532658
11.001
1.58751
2.42837
14.7631
5.43689
18.6678
14.7631
11.1819
0.0556585
9.72109
0.724143
5.43689
6.10471
0.724143
-0
7.01054
-0
7.01054
16.8207
1.01462
6.10471
1.01462
11.001
0.532054
4.60404
3.7747
4.21617
4.39845
3.54104
3.54104
3.95707
3.87092
3.73711
4.21617
3.7747
3.95707
3.4131
3.73582
-0
2.73904
2.91551
-0
5.83705
3.21977
2.91551
3.73582
5.4756
3.87092
3.91177
3.49487
3.30511
3.10326
3.49487
2.7779
3.10326
2.7779
-0
3.11391
3.30511
5.59551
-0
3.34338
6.61895
3.21977
6.20809
-0
6.57017
-0
3.34338
3.11391
3.73711
2.68336
-0
4.83738
4.85382
5.6873
11.1204
6.55712
4.85382
6.08007
5.85597
5.882
4.42164
5.882
5.85597
5.56716
5.56716
23.8097
10.8817
15.5076
6.08131
6.55215
7.8377
10.6027
5.85778
6.55215
10.8817
7.8377
10.4501
11.1204
6.08131
5.1905
7.32865
5.89636
5.89636
7.1972
7.32865
8.56795
9.84928
9.95776
9.52863
6.51705
6.52949
6.39521
6.12317
6.52949
6.39521
9.52863
6.9446
7.30215
7.30215
10.356
10.5122
6.9446
10.5122
5.92704
6.51705
5.85778
11.9888
7.62173
6.40213
7.05837
4.83102
4.70397
6.40213
6.12317
4.73008
3.39828
4.13382
3.52061
6.75998
5.32115
4.82304
4.36892
5.32115
4.36892
13.107
6.75998
7.83992
3.57554
4.82304
7.83992
3.57554
5.92704
1.96834
4.22208
1.99626
4.09755
4.09755
1.96834
6.8897
4.15716
2.09127
2.09127
3.27559
3.31148
1.99626
4.15716
4.99496
6.8897
4.22208
3.31148
7.62173
10.356
4.23585
10.1766
16.7371
18.8848
11.8669
11.2763
12.2024
14.482
14.482
11.8669
10.2159
10.2159
10.541
10.541
12.5022
8.42145
12.2024
-0
16.31
11.2763
13.107
16.5673
-0
17.0602
-0
8.60816
8.42145
10.836
10.836
17.8408
12.5626
17.5041
17.8408
12.5626
8.79853
10.9317
16.7987
8.78344
8.64516
8.79853
10.9317
8.60816
12.1384
12.1384
10.6763
12.0384
17.3707
10.6763
8.78344
8.39362
8.56901
8.56901
8.39847
6.66649
8.39362
6.81193
10.6308
8.64516
17.5041
6.81193
-0
22.9599
-0
12.8338
16.1612
8.83139
12.94
-0
6.69625
12.8338
6.66649
8.57978
12.5022
16.31
3.27559
-0
17.4588
2.24069
-0
-0
-0
17.3707
3.29575
17.4475
3.1904
3.29575
3.1904
12.0749
17.4475
11.6416
16.6939
16.6939
12.0749
3.04023
12.0384
3.72852
16.1944
4.5793
3.72852
11.0653
16.1944
10.3371
16.7234
12.2828
10.3371
16.7234
11.0653
2.83869
3.04023
-0
11.6416
2.24069
-0
4.06452
2.7865
12.1244
12.1244
17.5534
13.3174
2.81501
13.3174
12.2828
8.23955
30.1062
-0
62.9001
17.5534
7.07736
2.83869
17.0682
8.39847
10.6683
8.45863
10.3824
10.6683
8.45863
6.69625
8.62335
6.74573
6.74573
8.62335
12.94
8.23003
8.57978
8.48854
10.0191
7.87811
9.52452
10.0191
7.87811
6.6316
8.48854
6.29029
8.20882
7.56594
6.6316
8.20882
13.1265
7.10679
8.23003
10.3824
6.29029
10.0496
10.2326
10.2326
13.0657
13.1265
4.53143
9.22133
4.62706
4.53143
-0
10.2822
-0
4.62706
13.0303
10.3206
12.57
13.0303
10.3206
5.62806
5.62806
-0
4.66354
11.5625
8.01557
4.66354
9.82957
10.2822
13.0657
5.32987
10.0496
6.54605
9.52452
4.36551
5.1385
5.1385
6.54605
4.59535
4.59535
2.67292
4.19891
4.36551
2.67292
5.52108
7.56594
6.26657
6.26657
9.69114
9.69114
7.70243
7.70243
2.25497
3.94586
4.13145
4.13145
8.68402
1.7914
3.94586
-0
-0
4.19891
5.52108
2.25497
12.57
5.15528
3.03253
3.37506
5.15528
3.03253
2.36264
9.82957
0.208984
9.83441
9.18849
9.18849
5.32987
3.01941
3.01941
-0
0.856594
3.37506
1.55547
-0
11.3538
-0
4.53154
7.42756
1.60353
1.60353
1.7914
7.10679
7.07736
10.6308
2.50727
2.50727
3.07754
2.63203
2.24454
2.01109
2.24454
2.01109
2.18637
2.31843
2.70372
2.18637
2.31843
2.63203
3.14
3.07754
3.14
2.70372
3.65767
3.59603
3.59603
3.14516
3.14516
3.12564
3.65767
3.61506
3.12564
4.1348
4.14736
4.65807
4.14736
3.61506
2.63058
2.63058
2.58289
2.58289
3.06201
3.06201
4.09495
3.57358
4.666
4.09495
4.1348
3.57358
2.98174
2.98174
3.52762
3.32397
4.02325
3.93424
3.32397
3.52762
4.02325
4.56587
4.666
4.56587
3.93424
5.18311
5.18311
5.116