# vtk DataFile Version 2.0
rig or elements
ASCII

DATASET UNSTRUCTURED_GRID
POINTS 438 float
2.9039132E+02  3.4496964E-01  -5.2729291E+01
2.9039604E+02  0.0000000E+00  -5.2725862E+01
2.9037517E+02  7.2780060E-01  -5.2741125E+01
2.9039132E+02  3.4496964E-01  -5.2729291E+01
2.9034632E+02  1.1095336E+00  -5.2761337E+01
2.9037517E+02  7.2780060E-01  -5.2741125E+01
2.9030356E+02  1.4894308E+00  -5.2789805E+01
2.9034632E+02  1.1095336E+00  -5.2761337E+01
2.9024388E+02  1.8663548E+00  -5.2826236E+01
2.9030356E+02  1.4894308E+00  -5.2789805E+01
2.9016704E+02  2.2393246E+00  -5.2870398E+01
2.9024388E+02  1.8663548E+00  -5.2826236E+01
2.9006994E+02  2.6066208E+00  -5.2921663E+01
2.9016704E+02  2.2393246E+00  -5.2870398E+01
2.8995277E+02  2.9670108E+00  -5.2979559E+01
2.9006994E+02  2.6066208E+00  -5.2921663E+01
2.8980013E+02  3.3536889E+00  -5.3050298E+01
2.8995277E+02  2.9670108E+00  -5.2979559E+01
2.8938836E+02  3.6077513E+00  -5.3070535E+01
2.8980013E+02  3.3536889E+00  -5.3050298E+01
2.8938836E+02  3.6077513E+00  -5.3070535E+01
2.8901363E+02  3.8380047E+00  -5.3089701E+01
2.8863343E+02  4.0593779E+00  -5.3105352E+01
2.8901363E+02  3.8380047E+00  -5.3089701E+01
2.8824387E+02  4.2643384E+00  -5.3112355E+01
2.8863343E+02  4.0593779E+00  -5.3105352E+01
2.8784608E+02  4.4529581E+00  -5.3111267E+01
2.8824387E+02  4.2643384E+00  -5.3112355E+01
2.8784608E+02  4.4529581E+00  -5.3111267E+01
2.8744359E+02  4.6312827E+00  -5.3106542E+01
2.8744359E+02  4.6312827E+00  -5.3106542E+01
2.8703907E+02  4.8049337E+00  -5.3101462E+01
2.8663301E+02  4.9749920E+00  -5.3096528E+01
2.8703907E+02  4.8049337E+00  -5.3101462E+01
2.8622571E+02  5.1420377E+00  -5.3091887E+01
2.8663301E+02  4.9749920E+00  -5.3096528E+01
2.8581731E+02  5.3063833E+00  -5.3087653E+01
2.8622571E+02  5.1420377E+00  -5.3091887E+01
2.8540795E+02  5.4683612E+00  -5.3083936E+01
2.8581731E+02  5.3063833E+00  -5.3087653E+01
2.8499777E+02  5.6282450E+00  -5.3080792E+01
2.8540795E+02  5.4683612E+00  -5.3083936E+01
2.8458688E+02  5.7863223E+00  -5.3078257E+01
2.8499777E+02  5.6282450E+00  -5.3080792E+01
2.8417534E+02  5.9427065E+00  -5.3076355E+01
2.8458688E+02  5.7863223E+00  -5.3078257E+01
2.8376330E+02  6.0977863E+00  -5.3075069E+01
2.8417534E+02  5.9427065E+00  -5.3076355E+01
2.8335083E+02  6.2517055E+00  -5.3074383E+01
2.8376330E+02  6.0977863E+00  -5.3075069E+01
2.8293794E+02  6.4045151E+00  -5.3074296E+01
2.8335083E+02  6.2517055E+00  -5.3074383E+01
2.8252471E+02  6.5563934E+00  -5.3074791E+01
2.8293794E+02  6.4045151E+00  -5.3074296E+01
2.8211113E+02  6.7072912E+00  -5.3075866E+01
2.8252471E+02  6.5563934E+00  -5.3074791E+01
2.8169723E+02  6.8573164E+00  -5.3077507E+01
2.8211113E+02  6.7072912E+00  -5.3075866E+01
2.8128300E+02  7.0064502E+00  -5.3079702E+01
2.8169723E+02  6.8573164E+00  -5.3077507E+01
2.8086846E+02  7.1546815E+00  -5.3082416E+01
2.8128300E+02  7.0064502E+00  -5.3079702E+01
2.8032929E+02  7.3466313E+00  -5.3086744E+01
2.8086846E+02  7.1546815E+00  -5.3082416E+01
2.8032929E+02  7.3466313E+00  -5.3086744E+01
2.8066484E+02  7.4110756E+00  -5.3108874E+01
2.8066484E+02  7.4110756E+00  -5.3108874E+01
2.8103393E+02  7.5003583E+00  -5.3131911E+01
2.8103393E+02  7.5003583E+00  -5.3131911E+01
2.8095521E+02  7.8565841E+00  -5.3239787E+01
2.8057549E+02  7.8787902E+00  -5.3246960E+01
2.8095521E+02  7.8565841E+00  -5.3239787E+01
2.8042679E+02  7.7834652E+00  -5.3358618E+01
2.8057549E+02  7.8787902E+00  -5.3246960E+01
2.8042679E+02  7.7834652E+00  -5.3358618E+01
2.8103793E+02  7.6844310E+00  -5.3422238E+01
2.8103793E+02  7.6844310E+00  -5.3422238E+01
2.8171691E+02  7.5740640E+00  -5.3493089E+01
2.8171691E+02  7.5740640E+00  -5.3493089E+01
2.8239551E+02  7.4622209E+00  -5.3565137E+01
2.8239551E+02  7.4622209E+00  -5.3565137E+01
2.8307391E+02  7.3496480E+00  -5.3637749E+01
2.8307391E+02  7.3496480E+00  -5.3637749E+01
2.8375177E+02  7.2351384E+00  -5.3712252E+01
2.8375177E+02  7.2351384E+00  -5.3712252E+01
2.8442911E+02  7.1189754E+00  -5.3788603E+01
2.8442911E+02  7.1189754E+00  -5.3788603E+01
2.8510607E+02  7.0016015E+00  -5.3866349E+01
2.8510607E+02  7.0016015E+00  -5.3866349E+01
2.8574945E+02  6.8871296E+00  -5.3943978E+01
2.8645775E+02  6.7603218E+00  -5.4030309E+01
2.8574945E+02  6.8871296E+00  -5.3943978E+01
2.8713266E+02  6.6370600E+00  -5.4115774E+01
2.8645775E+02  6.7603218E+00  -5.4030309E+01
2.8780663E+02  6.5113492E+00  -5.4204619E+01
2.8713266E+02  6.6370600E+00  -5.4115774E+01
2.8848018E+02  6.3844590E+00  -5.4295010E+01
2.8780663E+02  6.5113492E+00  -5.4204619E+01
2.8942213E+02  6.2042442E+00  -5.4425145E+01
2.8848018E+02  6.3844590E+00  -5.4295010E+01
2.9029888E+02  6.0660042E+00  -5.4586227E+01
2.9080321E+02  5.9518999E+00  -5.4657243E+01
2.9080321E+02  5.9518999E+00  -5.4657243E+01
2.9135408E+02  5.7786521E+00  -5.4694544E+01
2.9135408E+02  5.7786521E+00  -5.4694544E+01
2.9190117E+02  5.6001823E+00  -5.4732973E+01
2.9190117E+02  5.6001823E+00  -5.4732973E+01
2.9244358E+02  5.4130636E+00  -5.4770677E+01
2.9244358E+02  5.4130636E+00  -5.4770677E+01
2.9298247E+02  5.2115770E+00  -5.4798538E+01
2.9298247E+02  5.2115770E+00  -5.4798538E+01
2.9351598E+02  5.0007160E+00  -5.4830871E+01
2.9351598E+02  5.0007160E+00  -5.4830871E+01
2.9404495E+02  4.7786593E+00  -5.4864711E+01
2.9404495E+02  4.7786593E+00  -5.4864711E+01
2.9441607E+02  4.6219920E+00  -5.4891895E+01
2.9441607E+02  4.6219920E+00  -5.4891895E+01
2.9489148E+02  4.3455691E+00  -5.4909302E+01
2.9489148E+02  4.3455691E+00  -5.4909302E+01
2.9538939E+02  4.0293408E+00  -5.4879877E+01
2.9538939E+02  4.0293408E+00  -5.4879877E+01
2.9592895E+02  4.1603357E+00  -5.4705361E+01
2.9592895E+02  4.1603357E+00  -5.4705361E+01
2.9643170E+02  4.0883187E+00  -5.4436495E+01
2.9643170E+02  4.0883187E+00  -5.4436495E+01
2.9714299E+02  3.8412062E+00  -5.4092471E+01
2.8993002E+02  6.1944716E+00  -5.4556916E+01
2.8942213E+02  6.2042442E+00  -5.4425145E+01
2.9046320E+02  6.1239938E+00  -5.4536040E+01
2.8993002E+02  6.1944716E+00  -5.4556916E+01
2.9079190E+02  6.4564065E+00  -5.4928703E+01
2.9046320E+02  6.1239938E+00  -5.4536040E+01
2.9055816E+02  6.9892259E+00  -5.5492973E+01
2.9079190E+02  6.4564065E+00  -5.4928703E+01
3.3460231E+02  3.1109247E-03  -5.4211745E+01
3.3460211E+02  0.0000000E+00  -5.4210564E+01
3.3460217E+02  5.6377218E-03  -5.4213914E+01
3.3460231E+02  3.1109247E-03  -5.4211745E+01
3.3460219E+02  6.7179909E-03  -5.4217068E+01
3.3460217E+02  5.6377218E-03  -5.4213914E+01
3.3460192E+02  5.5340854E-03  -5.4220172E+01
3.3460219E+02  6.7179909E-03  -5.4217068E+01
3.3460190E+02  3.1657221E-03  -5.4222517E+01
3.3460192E+02  5.5340854E-03  -5.4220172E+01
3.3460217E+02  0.0000000E+00  -5.4223525E+01
3.3460190E+02  3.1657221E-03  -5.4222517E+01
2.7999239E+02  7.4654218E+00  -5.3089587E+01
2.8032929E+02  7.3466313E+00  -5.3086744E+01
2.7965547E+02  7.5841424E+00  -5.3092326E+01
2.7999239E+02  7.4654218E+00  -5.3089587E+01
2.7931852E+02  7.7027928E+00  -5.3094963E+01
2.7965547E+02  7.5841424E+00  -5.3092326E+01
2.7898155E+02  7.8213733E+00  -5.3097496E+01
2.7931852E+02  7.7027928E+00  -5.3094963E+01
2.7864455E+02  7.9398836E+00  -5.3099927E+01
2.7898155E+02  7.8213733E+00  -5.3097496E+01
2.7830752E+02  8.0583241E+00  -5.3102255E+01
2.7864455E+02  7.9398836E+00  -5.3099927E+01
2.7797047E+02  8.1766945E+00  -5.3104481E+01
2.7830752E+02  8.0583241E+00  -5.3102255E+01
2.8007587E+02  7.8397225E+00  -5.3322636E+01
2.8042679E+02  7.7834652E+00  -5.3358618E+01
2.7972495E+02  7.8959527E+00  -5.3286546E+01
2.8007587E+02  7.8397225E+00  -5.3322636E+01
2.7937404E+02  7.9521556E+00  -5.3250349E+01
2.7972495E+02  7.8959527E+00  -5.3286546E+01
2.7902314E+02  8.0083314E+00  -5.3214044E+01
2.7937404E+02  7.9521556E+00  -5.3250349E+01
2.7867225E+02  8.0644797E+00  -5.3177631E+01
2.7902314E+02  8.0083314E+00  -5.3214044E+01
2.7832136E+02  8.1206008E+00  -5.3141110E+01
2.7867225E+02  8.0644797E+00  -5.3177631E+01
2.7797047E+02  8.1766945E+00  -5.3104481E+01
2.7832136E+02  8.1206008E+00  -5.3141110E+01
2.6633010E+02  1.1224986E+01  -5.2546688E+01
2.7797047E+02  8.1766945E+00  -5.3104481E+01
2.5468549E+02  1.4241405E+01  -5.1909535E+01
2.6633010E+02  1.1224986E+01  -5.2546688E+01
2.4303729E+02  1.7226359E+01  -5.1194116E+01
2.5468549E+02  1.4241405E+01  -5.1909535E+01
2.3138614E+02  2.0180231E+01  -5.0401515E+01
2.4303729E+02  1.7226359E+01  -5.1194116E+01
2.1973264E+02  2.3103385E+01  -4.9532808E+01
2.3138614E+02  2.0180231E+01  -5.0401515E+01
1.9969589E+02  2.0168118E+01  -4.2430668E+01
2.1973264E+02  2.3103385E+01  -4.9532808E+01
1.7968481E+02  1.7278776E+01  -3.5237284E+01
1.9969589E+02  2.0168118E+01  -4.2430668E+01
1.5969903E+02  1.4434772E+01  -2.7955555E+01
1.7968481E+02  1.7278776E+01  -3.5237284E+01
1.3973809E+02  1.1635502E+01  -2.0588273E+01
1.5969903E+02  1.4434772E+01  -2.7955555E+01
1.1980158E+02  8.8803611E+00  -1.3138173E+01
1.3973809E+02  1.1635502E+01  -2.0588273E+01
9.9889021E+01  6.1687321E+00  -5.6078903E+00
1.1980158E+02  8.8803611E+00  -1.3138173E+01
8.0000000E+01  3.5000000E+00  2.0000000E+00
9.9889021E+01  6.1687321E+00  -5.6078903E+00
2.3006058E+02  2.7593558E+01  -5.4167296E+01
2.3003177E+02  2.7343513E+01  -5.6000170E+01
2.3003177E+02  2.7343513E+01  -5.6000170E+01
2.3286284E+02  2.7018205E+01  -5.6000544E+01
2.3289119E+02  2.7258159E+01  -5.4166569E+01
2.3286284E+02  2.7018205E+01  -5.6000544E+01
2.3006058E+02  2.7593558E+01  -5.4167296E+01
2.3289119E+02  2.7258159E+01  -5.4166569E+01
2.3081301E+02  2.7122751E+01  -5.5048387E+01
2.3006058E+02  2.7593558E+01  -5.4167296E+01
2.3081301E+02  2.7122751E+01  -5.5048387E+01
2.3003177E+02  2.7343513E+01  -5.6000170E+01
2.3081301E+02  2.7122751E+01  -5.5048387E+01
2.3289119E+02  2.7258159E+01  -5.4166569E+01
2.3081301E+02  2.7122751E+01  -5.5048387E+01
2.3286284E+02  2.7018205E+01  -5.6000544E+01
2.3286284E+02  2.7018205E+01  -5.6000544E+01
2.3360968E+02  2.6918723E+01  -5.5066197E+01
2.3289119E+02  2.7258159E+01  -5.4166569E+01
2.3360968E+02  2.6918723E+01  -5.5066197E+01
2.3360968E+02  2.6918723E+01  -5.5066197E+01
2.4482509E+02  2.3348063E+01  -5.5673995E+01
2.4482509E+02  2.3348063E+01  -5.5673995E+01
2.5601839E+02  1.9671837E+01  -5.5988941E+01
2.5601839E+02  1.9671837E+01  -5.5988941E+01
2.6717967E+02  1.5886495E+01  -5.6000032E+01
2.6717967E+02  1.5886495E+01  -5.6000032E+01
2.7826624E+02  1.1887926E+01  -5.6000016E+01
2.7826624E+02  1.1887926E+01  -5.6000016E+01
2.8928354E+02  7.7060514E+00  -5.5827401E+01
2.1973264E+02  2.3103385E+01  -4.9532808E+01
2.2342822E+02  2.4435122E+01  -5.1372954E+01
2.2342822E+02  2.4435122E+01  -5.1372954E+01
2.2712169E+02  2.5774887E+01  -5.3211482E+01
2.2712169E+02  2.5774887E+01  -5.3211482E+01
2.3081301E+02  2.7122751E+01  -5.5048387E+01
2.3006058E+02  2.7593558E+01  -5.4167296E+01
2.3286284E+02  2.7018205E+01  -5.6000544E+01
2.3003177E+02  2.7343513E+01  -5.6000170E+01
2.3289119E+02  2.7258159E+01  -5.4166569E+01
2.8928354E+02  7.7060514E+00  -5.5827401E+01
2.9055816E+02  6.9892259E+00  -5.5492973E+01
2.9886824E+02  0.0000000E+00  -5.5296739E+01
2.9886777E+02  0.0000000E+00  -5.5850015E+01
2.9882502E+02  6.3251882E-01  -5.5290490E+01
2.9882289E+02  5.7334234E-01  -5.5850013E+01
2.9870068E+02  1.2541136E+00  -5.5278298E+01
2.9869633E+02  1.1343406E+00  -5.5850013E+01
2.9847729E+02  1.8472362E+00  -5.5261132E+01
2.9849537E+02  1.6731840E+00  -5.5850007E+01
2.9815312E+02  2.3917662E+00  -5.5241238E+01
2.9823380E+02  2.1853323E+00  -5.5845130E+01
2.9775427E+02  2.8842804E+00  -5.5222262E+01
2.9792510E+02  2.6703243E+00  -5.5830119E+01
2.9734419E+02  3.3668244E+00  -5.5190795E+01
2.9757691E+02  3.1274064E+00  -5.5806052E+01
2.9724393E+02  3.5080412E+00  -5.5831764E+01
2.9753180E+02  3.7049002E+00  -5.5376219E+01
2.9688816E+02  3.8681117E+00  -5.5846052E+01
2.9735916E+02  4.1808353E+00  -5.5533458E+01
2.9651400E+02  4.2093042E+00  -5.5850008E+01
2.9700310E+02  4.5655773E+00  -5.5613240E+01
2.9612233E+02  4.5302690E+00  -5.5850013E+01
2.9656040E+02  4.8587674E+00  -5.5636354E+01
2.9571494E+02  4.8310467E+00  -5.5850013E+01
2.9608903E+02  5.1050087E+00  -5.5644344E+01
2.9529469E+02  5.1135680E+00  -5.5850013E+01
2.9560738E+02  5.3301179E+00  -5.5629075E+01
2.9486376E+02  5.3795164E+00  -5.5850013E+01
2.9511573E+02  5.5319864E+00  -5.5607986E+01
2.9442382E+02  5.6303034E+00  -5.5850014E+01
2.9461698E+02  5.7159317E+00  -5.5587317E+01
2.9397619E+02  5.8670738E+00  -5.5850013E+01
2.9411376E+02  5.8870293E+00  -5.5564156E+01
2.9352190E+02  6.0908179E+00  -5.5850013E+01
2.9360869E+02  6.0522892E+00  -5.5539114E+01
2.9306192E+02  6.3026138E+00  -5.5850012E+01
2.9310236E+02  6.2142244E+00  -5.5517994E+01
2.9259712E+02  6.5036466E+00  -5.5850012E+01
2.9259465E+02  6.3723362E+00  -5.5501379E+01
2.9212829E+02  6.6950739E+00  -5.5850011E+01
2.9208579E+02  6.5271165E+00  -5.5489402E+01
2.9165605E+02  6.8779395E+00  -5.5850011E+01
2.9157652E+02  6.6809437E+00  -5.5483878E+01
2.9118092E+02  7.0531518E+00  -5.5850011E+01
2.9106741E+02  6.8353988E+00  -5.5485916E+01
2.9055816E+02  6.9892259E+00  -5.5492973E+01
2.9070330E+02  7.2214964E+00  -5.5850007E+01
2.8928354E+02  7.7060514E+00  -5.5827401E+01
2.9070330E+02  7.2214964E+00  -5.5850007E+01
2.9070330E+02  7.2214964E+00  -5.5850007E+01
2.9118092E+02  7.0531518E+00  -5.5850011E+01
2.9055816E+02  6.9892259E+00  -5.5492973E+01
2.9081549E+02  6.9121445E+00  -5.5489645E+01
2.9081549E+02  6.9121445E+00  -5.5489645E+01
2.9106741E+02  6.8353988E+00  -5.5485916E+01
2.9118092E+02  7.0531518E+00  -5.5850011E+01
2.9165605E+02  6.8779395E+00  -5.5850011E+01
2.9130999E+02  6.7613175E+00  -5.5483604E+01
2.9157652E+02  6.6809437E+00  -5.5483878E+01
2.9106741E+02  6.8353988E+00  -5.5485916E+01
2.9130999E+02  6.7613175E+00  -5.5483604E+01
2.9165605E+02  6.8779395E+00  -5.5850011E+01
2.9212829E+02  6.6950739E+00  -5.5850011E+01
2.9184292E+02  6.6001033E+00  -5.5485580E+01
2.9208579E+02  6.5271165E+00  -5.5489402E+01
2.9157652E+02  6.6809437E+00  -5.5483878E+01
2.9184292E+02  6.6001033E+00  -5.5485580E+01
2.9212829E+02  6.6950739E+00  -5.5850011E+01
2.9259712E+02  6.5036466E+00  -5.5850012E+01
2.9233774E+02  6.4505546E+00  -5.5494398E+01
2.9259465E+02  6.3723362E+00  -5.5501379E+01
2.9208579E+02  6.5271165E+00  -5.5489402E+01
2.9233774E+02  6.4505546E+00  -5.5494398E+01
2.9259712E+02  6.5036466E+00  -5.5850012E+01
2.9306192E+02  6.3026138E+00  -5.5850012E+01
2.9286967E+02  6.2867034E+00  -5.5509362E+01
2.9310236E+02  6.2142244E+00  -5.5517994E+01
2.9259465E+02  6.3723362E+00  -5.5501379E+01
2.9286967E+02  6.2867034E+00  -5.5509362E+01
2.9306192E+02  6.3026138E+00  -5.5850012E+01
2.9352190E+02  6.0908179E+00  -5.5850013E+01
2.9336279E+02  6.1311737E+00  -5.5527634E+01
2.9360869E+02  6.0522892E+00  -5.5539114E+01
2.9310236E+02  6.2142244E+00  -5.5517994E+01
2.9336279E+02  6.1311737E+00  -5.5527634E+01
2.9352190E+02  6.0908179E+00  -5.5850013E+01
2.9397619E+02  5.8670738E+00  -5.5850013E+01
2.9385410E+02  5.9717158E+00  -5.5549571E+01
2.9411376E+02  5.8870293E+00  -5.5564156E+01
2.9360869E+02  6.0522892E+00  -5.5539114E+01
2.9385410E+02  5.9717158E+00  -5.5549571E+01
2.9397619E+02  5.8670738E+00  -5.5850013E+01
2.9442382E+02  5.6303034E+00  -5.5850014E+01
2.9438196E+02  5.7966083E+00  -5.5575900E+01
2.9461698E+02  5.7159317E+00  -5.5587317E+01
2.9411376E+02  5.8870293E+00  -5.5564156E+01
2.9438196E+02  5.7966083E+00  -5.5575900E+01
2.9442382E+02  5.6303034E+00  -5.5850014E+01
2.9486376E+02  5.3795164E+00  -5.5850013E+01
2.9486955E+02  5.6248219E+00  -5.5596221E+01
2.9511573E+02  5.5319864E+00  -5.5607986E+01
2.9461698E+02  5.7159317E+00  -5.5587317E+01
2.9486955E+02  5.6248219E+00  -5.5596221E+01
2.9486376E+02  5.3795164E+00  -5.5850013E+01
2.9529469E+02  5.1135680E+00  -5.5850013E+01
2.9535200E+02  5.4400447E+00  -5.5615328E+01
2.9560738E+02  5.3301179E+00  -5.5629075E+01
2.9511573E+02  5.5319864E+00  -5.5607986E+01
2.9535200E+02  5.4400447E+00  -5.5615328E+01
2.9529469E+02  5.1135680E+00  -5.5850013E+01
2.9571494E+02  4.8310467E+00  -5.5850013E+01
2.9586156E+02  5.2166489E+00  -5.5633610E+01
2.9608903E+02  5.1050087E+00  -5.5644344E+01
2.9560738E+02  5.3301179E+00  -5.5629075E+01
2.9586156E+02  5.2166489E+00  -5.5633610E+01
2.9571494E+02  4.8310467E+00  -5.5850013E+01
2.9612233E+02  4.5302690E+00  -5.5850013E+01
2.9632540E+02  4.9880921E+00  -5.5638704E+01
2.9656040E+02  4.8587674E+00  -5.5636354E+01
2.9608903E+02  5.1050087E+00  -5.5644344E+01
2.9632540E+02  4.9880921E+00  -5.5638704E+01
2.9612233E+02  4.5302690E+00  -5.5850013E+01
2.9651400E+02  4.2093042E+00  -5.5850008E+01
2.9677300E+02  4.7305954E+00  -5.5620360E+01
2.9700310E+02  4.5655773E+00  -5.5613240E+01
2.9656040E+02  4.8587674E+00  -5.5636354E+01
2.9677300E+02  4.7305954E+00  -5.5620360E+01
2.9651400E+02  4.2093042E+00  -5.5850008E+01
2.9688816E+02  3.8681117E+00  -5.5846052E+01
2.9720213E+02  4.3818155E+00  -5.5575451E+01
2.9735916E+02  4.1808353E+00  -5.5533458E+01
2.9700310E+02  4.5655773E+00  -5.5613240E+01
2.9720213E+02  4.3818155E+00  -5.5575451E+01
2.9688816E+02  3.8681117E+00  -5.5846052E+01
2.9724393E+02  3.5080412E+00  -5.5831764E+01
2.9746401E+02  3.9570579E+00  -5.5457608E+01
2.9753180E+02  3.7049002E+00  -5.5376219E+01
2.9735916E+02  4.1808353E+00  -5.5533458E+01
2.9746401E+02  3.9570579E+00  -5.5457608E+01
2.9724393E+02  3.5080412E+00  -5.5831764E+01
2.9757691E+02  3.1274064E+00  -5.5806052E+01
2.9734419E+02  3.3668244E+00  -5.5190795E+01
2.9731300E+02  3.3914564E+00  -5.5189278E+01
2.9731300E+02  3.3914564E+00  -5.5189278E+01
2.9728813E+02  3.4167997E+00  -5.5188512E+01
2.9728813E+02  3.4167997E+00  -5.5188512E+01
2.9727191E+02  3.4483306E+00  -5.5190508E+01
2.9727080E+02  3.4671533E+00  -5.5193735E+01
2.9727191E+02  3.4483306E+00  -5.5190508E+01
2.9727080E+02  3.4671533E+00  -5.5193735E+01
2.9729588E+02  3.4859982E+00  -5.5204418E+01
2.9729588E+02  3.4859982E+00  -5.5204418E+01
2.9732011E+02  3.5041178E+00  -5.5217956E+01
2.9732011E+02  3.5041178E+00  -5.5217956E+01
2.9734392E+02  3.5222223E+00  -5.5232232E+01
2.9734392E+02  3.5222223E+00  -5.5232232E+01
2.9736776E+02  3.5409194E+00  -5.5245672E+01
2.9736776E+02  3.5409194E+00  -5.5245672E+01
2.9739221E+02  3.5599977E+00  -5.5257367E+01
2.9739221E+02  3.5599977E+00  -5.5257367E+01
2.9741674E+02  3.5804484E+00  -5.5266237E+01
2.9743920E+02  3.6004877E+00  -5.5280108E+01
2.9741674E+02  3.5804484E+00  -5.5266237E+01
2.9743920E+02  3.6004877E+00  -5.5280108E+01
2.9745962E+02  3.6208324E+00  -5.5296469E+01
2.9745962E+02  3.6208324E+00  -5.5296469E+01
2.9748115E+02  3.6415496E+00  -5.5315311E+01
2.9750117E+02  3.6625155E+00  -5.5335815E+01
2.9748115E+02  3.6415496E+00  -5.5315311E+01
2.9750117E+02  3.6625155E+00  -5.5335815E+01
2.9751790E+02  3.6848557E+00  -5.5357774E+01
2.9753180E+02  3.7049002E+00  -5.5376219E+01
2.9751790E+02  3.6848557E+00  -5.5357774E+01
2.9757691E+02  3.1274064E+00  -5.5806052E+01
2.9792510E+02  2.6703243E+00  -5.5830119E+01
2.9734419E+02  3.3668244E+00  -5.5190795E+01
2.9775427E+02  2.8842804E+00  -5.5222262E+01
2.9792510E+02  2.6703243E+00  -5.5830119E+01
2.9823380E+02  2.1853323E+00  -5.5845130E+01
2.9775427E+02  2.8842804E+00  -5.5222262E+01
2.9815312E+02  2.3917662E+00  -5.5241238E+01
2.9823380E+02  2.1853323E+00  -5.5845130E+01
2.9849537E+02  1.6731840E+00  -5.5850007E+01
2.9815312E+02  2.3917662E+00  -5.5241238E+01
2.9847729E+02  1.8472362E+00  -5.5261132E+01
2.9849537E+02  1.6731840E+00  -5.5850007E+01
2.9869633E+02  1.1343406E+00  -5.5850013E+01
2.9847729E+02  1.8472362E+00  -5.5261132E+01
2.9870068E+02  1.2541136E+00  -5.5278298E+01
2.9869633E+02  1.1343406E+00  -5.5850013E+01
2.9882289E+02  5.7334234E-01  -5.5850013E+01
2.9870068E+02  1.2541136E+00  -5.5278298E+01
2.9882502E+02  6.3251882E-01  -5.5290490E+01
2.9882289E+02  5.7334234E-01  -5.5850013E+01
2.9886777E+02  0.0000000E+00  -5.5850015E+01
2.9882502E+02  6.3251882E-01  -5.5290490E+01
2.9886824E+02  0.0000000E+00  -5.5296739E+01
2.9029888E+02  6.0660042E+00  -5.4586227E+01
2.8942213E+02  6.2042442E+00  -5.4425145E+01

CELLS 219 657
2 0 1
2 2 3
2 4 5
2 6 7
2 8 9
2 10 11
2 12 13
2 14 15
2 16 17
2 18 19
2 20 21
2 22 23
2 24 25
2 26 27
2 28 29
2 30 31
2 32 33
2 34 35
2 36 37
2 38 39
2 40 41
2 42 43
2 44 45
2 46 47
2 48 49
2 50 51
2 52 53
2 54 55
2 56 57
2 58 59
2 60 61
2 62 63
2 64 65
2 66 67
2 68 69
2 70 71
2 72 73
2 74 75
2 76 77
2 78 79
2 80 81
2 82 83
2 84 85
2 86 87
2 88 89
2 90 91
2 92 93
2 94 95
2 96 97
2 98 99
2 100 101
2 102 103
2 104 105
2 106 107
2 108 109
2 110 111
2 112 113
2 114 115
2 116 117
2 118 119
2 120 121
2 122 123
2 124 125
2 126 127
2 128 129
2 130 131
2 132 133
2 134 135
2 136 137
2 138 139
2 140 141
2 142 143
2 144 145
2 146 147
2 148 149
2 150 151
2 152 153
2 154 155
2 156 157
2 158 159
2 160 161
2 162 163
2 164 165
2 166 167
2 168 169
2 170 171
2 172 173
2 174 175
2 176 177
2 178 179
2 180 181
2 182 183
2 184 185
2 186 187
2 188 189
2 190 191
2 192 193
2 194 195
2 196 197
2 198 199
2 200 201
2 202 203
2 204 205
2 206 207
2 208 209
2 210 211
2 212 213
2 214 215
2 216 217
2 218 219
2 220 221
2 222 223
2 224 225
2 226 227
2 228 229
2 230 231
2 232 233
2 234 235
2 236 237
2 238 239
2 240 241
2 242 243
2 244 245
2 246 247
2 248 249
2 250 251
2 252 253
2 254 255
2 256 257
2 258 259
2 260 261
2 262 263
2 264 265
2 266 267
2 268 269
2 270 271
2 272 273
2 274 275
2 276 277
2 278 279
2 280 281
2 282 283
2 284 285
2 286 287
2 288 289
2 290 291
2 292 293
2 294 295
2 296 297
2 298 299
2 300 301
2 302 303
2 304 305
2 306 307
2 308 309
2 310 311
2 312 313
2 314 315
2 316 317
2 318 319
2 320 321
2 322 323
2 324 325
2 326 327
2 328 329
2 330 331
2 332 333
2 334 335
2 336 337
2 338 339
2 340 341
2 342 343
2 344 345
2 346 347
2 348 349
2 350 351
2 352 353
2 354 355
2 356 357
2 358 359
2 360 361
2 362 363
2 364 365
2 366 367
2 368 369
2 370 371
2 372 373
2 374 375
2 376 377
2 378 379
2 380 381
2 382 383
2 384 385
2 386 387
2 388 389
2 390 391
2 392 393
2 394 395
2 396 397
2 398 399
2 400 401
2 402 403
2 404 405
2 406 407
2 408 409
2 410 411
2 412 413
2 414 415
2 416 417
2 418 419
2 420 421
2 422 423
2 424 425
2 426 427
2 428 429
2 430 431
2 432 433
2 434 435
2 436 437

CELL_TYPES 219
3
3
3
3
3
3
3
3
3
3
3
3
3
3
3
3
3
3
3
3
3
3
3
3
3
3
3
3
3
3
3
3
3
3
3
3
3
3
3
3
3
3
3
3
3
3
3
3
3
3
3
3
3
3
3
3
3
3
3
3
3
3
3
3
3
3
3
3
3
3
3
3
3
3
3
3
3
3
3
3
3
3
3
3
3
3
3
3
3
3
3
3
3
3
3
3
3
3
3
3
3
3
3
3
3
3
3
3
3
3
3
3
3
3
3
3
3
3
3
3
3
3
3
3
3
3
3
3
3
3
3
3
3
3
3
3
3
3
3
3
3
3
3
3
3
3
3
3
3
3
3
3
3
3
3
3
3
3
3
3
3
3
3
3
3
3
3
3
3
3
3
3
3
3
3
3
3
3
3
3
3
3
3
3
3
3
3
3
3
3
3
3
3
3
3
3
3
3
3
3
3
3
3
3
3
3
3
3
3
3
3
3
3
3
3
3
3
3
3

CELL_DATA 219
SCALARS rig_tension_in_N float 1
LOOKUP_TABLE default
1.48e+03
1.49e+03
1.49e+03
1.50e+03
1.52e+03
1.54e+03
1.58e+03
1.62e+03
1.68e+03
3.93e+03
3.93e+03
4.04e+03
4.31e+03
4.60e+03
4.79e+03
4.87e+03
4.93e+03
4.98e+03
5.02e+03
5.06e+03
5.10e+03
5.13e+03
5.15e+03
5.18e+03
5.19e+03
5.21e+03
5.23e+03
5.24e+03
5.26e+03
5.28e+03
5.29e+03
5.30e+03
7.35e+00
7.17e+00
1.06e+00
8.14e+00
-0.00e+00
4.28e+03
4.30e+03
4.27e+03
4.27e+03
4.24e+03
4.21e+03
4.20e+03
4.14e+03
4.14e+03
4.10e+03
4.06e+03
4.05e+03
4.02e+03
9.61e-01
9.41e-01
9.10e-01
8.83e-01
8.98e-01
8.76e-01
8.77e-01
9.11e-01
-0.00e+00
-0.00e+00
-0.00e+00
-0.00e+00
-0.00e+00
-0.00e+00
-0.00e+00
-0.00e+00
-0.00e+00
2.88e+02
2.88e+02
2.91e+02
2.89e+02
2.90e+02
2.91e+02
5.33e+03
5.33e+03
5.33e+03
5.33e+03
5.33e+03
5.33e+03
5.33e+03
4.34e+03
4.34e+03
4.34e+03
4.34e+03
4.34e+03
4.34e+03
4.34e+03
9.64e+03
9.68e+03
9.71e+03
9.74e+03
9.78e+03
2.93e+04
2.94e+04
2.96e+04
2.98e+04
2.99e+04
3.01e+04
3.03e+04
8.20e+02
-2.16e+03
-1.92e+03
2.86e+03
1.04e+04
1.57e+04
1.40e+04
2.30e+04
4.67e+03
5.41e+03
6.41e+03
6.36e+03
6.31e+03
6.12e+03
6.00e+03
2.08e+04
2.08e+04
2.08e+04
-1.34e+04
-1.25e+04
1.45e+03
-2.10e-01
-1.96e-01
-1.66e-01
-1.22e-01
-8.10e-02
-4.76e-02
4.19e+02
-1.80e-01
-7.71e-02
-7.18e-02
-1.60e-01
-2.75e-01
-3.72e-01
-4.55e-01
-5.18e-01
-5.46e-01
-5.36e-01
-5.06e-01
-4.68e-01
-4.28e-01
-3.95e-01
-3.73e-01
-3.57e-01
4.58e+03
4.50e+03
1.16e+03
1.15e+03
4.41e+03
1.08e+03
1.11e+03
4.31e+03
1.01e+03
1.03e+03
4.21e+03
9.31e+02
9.56e+02
4.11e+03
8.55e+02
8.80e+02
4.01e+03
7.72e+02
8.02e+02
3.91e+03
6.86e+02
7.19e+02
3.81e+03
6.23e+02
6.47e+02
3.72e+03
5.54e+02
5.86e+02
3.63e+03
4.40e+02
4.91e+02
3.54e+03
3.00e+02
3.51e+02
3.46e+03
2.35e+02
2.55e+02
3.38e+03
1.65e+02
1.96e+02
3.33e+03
1.17e+02
1.24e+02
3.31e+03
9.80e+01
1.03e+02
3.28e+03
2.42e+03
1.59e+03
9.26e+02
5.87e+02
5.33e+02
4.83e+02
4.41e+02
4.15e+02
3.73e+02
3.34e+02
2.97e+02
2.58e+02
2.16e+02
1.80e+02
1.55e+02
1.35e+02
3.46e+03
1.20e+03
3.43e+03
1.24e+03
3.41e+03
1.04e+03
3.38e+03
8.94e+02
3.35e+03
8.18e+02
3.34e+03
7.88e+02
1.92e+03
SCALARS element_no float 1
LOOKUP_TABLE default
1
1
1
1
1
1
1
1
1
2
2
2
2
2
2
2
2
2
2
2
2
2
2
2
2
2
2
2
2
2
2
2
3
3
3
3
3
4
4
4
4
4
4
4
4
4
4
4
4
4
5
5
5
5
5
5
5
5
6
6
6
6
6
7
7
7
7
8
8
8
9
9
9
10
10
10
10
10
10
10
11
11
11
11
11
11
11
12
12
12
12
12
13
13
13
13
13
13
13
14
15
16
17
18
19
20
21
22
23
24
24
24
24
24
25
25
25
26
27
28
29
30
31
32
33
34
35
36
37
38
39
40
41
42
43
44
45
46
47
48
49
50
51
52
53
54
54
55
56
56
57
58
58
59
60
60
61
62
62
63
64
64
65
66
66
67
68
68
69
70
70
71
72
72
73
74
74
75
76
76
77
78
78
79
80
80
81
82
82
83
84
84
84
84
84
84
84
84
84
84
84
84
84
84
84
84
85
86
87
88
89
90
91
92
93
94
95
96
97
