# vtk DataFile Version 2.0
trawl body or surfaces
ASCII

DATASET UNSTRUCTURED_GRID
POINTS 1880 float
2.8031321E+02  7.2964108E+00  -5.3108683E+01
2.8040513E+02  7.7155744E+00  -5.3381448E+01
2.8940316E+02  6.1479545E+00  -5.4436546E+01
2.9028109E+02  6.0145063E+00  -5.4595002E+01
2.8980369E+02  3.3541063E+00  -5.3079305E+01
2.9439845E+02  4.5717824E+00  -5.4881238E+01
2.9424798E+02  0.0000000E+00  -5.2753604E+01
2.9039762E+02  0.0000000E+00  -5.2755404E+01
2.9715910E+02  3.8369358E+00  -5.4076322E+01
2.9687691E+02  0.0000000E+00  -5.3165287E+01
3.0289503E+02  3.2155864E+00  -5.4102697E+01
3.0252404E+02  0.0000000E+00  -5.3374324E+01
3.0615279E+02  1.9906904E+00  -5.4098971E+01
3.0606079E+02  0.0000000E+00  -5.3457806E+01
3.1921778E+02  2.1842944E-01  -5.4181959E+01
3.1921743E+02  0.0000000E+00  -5.3984726E+01
3.3116184E+02  2.3371078E-01  -5.4064901E+01
3.3115982E+02  0.0000000E+00  -5.3887685E+01
3.3461310E+02  7.1959847E-03  -5.4048323E+01
3.3461258E+02  0.0000000E+00  -5.4042190E+01
3.0259863E+02  0.0000000E+00  -5.5109636E+01
3.0592182E+02  0.0000000E+00  -5.4848505E+01
3.1922144E+02  0.0000000E+00  -5.4381324E+01
3.3116326E+02  0.0000000E+00  -5.4248438E+01
3.3461274E+02  0.0000000E+00  -5.4054347E+01
2.9733933E+02  3.3470944E+00  -5.5181226E+01
2.9053737E+02  6.9512931E+00  -5.5486229E+01
2.9104658E+02  6.7974059E+00  -5.5477309E+01
2.9155571E+02  6.6430599E+00  -5.5473299E+01
2.9206511E+02  6.4896195E+00  -5.5476763E+01
2.9257424E+02  6.3355472E+00  -5.5486672E+01
2.9308237E+02  6.1786129E+00  -5.5501475E+01
2.9358932E+02  6.0184635E+00  -5.5521330E+01
2.9409524E+02  5.8558245E+00  -5.5546210E+01
2.9459941E+02  5.6876133E+00  -5.5569990E+01
2.9509910E+02  5.5063199E+00  -5.5591259E+01
2.9559163E+02  5.3066775E+00  -5.5613272E+01
2.9607413E+02  5.0834783E+00  -5.5629565E+01
2.9654627E+02  4.8386936E+00  -5.5622352E+01
2.9698980E+02  4.5467052E+00  -5.5600086E+01
2.9734744E+02  4.1631118E+00  -5.5521515E+01
2.9752350E+02  3.6879202E+00  -5.5365667E+01
2.9889617E+02  0.0000000E+00  -5.5299377E+01
2.9775595E+02  2.8704100E+00  -5.5215966E+01
2.9816147E+02  2.3834612E+00  -5.5236957E+01
2.9849345E+02  1.8437378E+00  -5.5259011E+01
2.9872335E+02  1.2531769E+00  -5.5278328E+01
2.9885161E+02  6.3241562E-01  -5.5292215E+01
2.7795046E+02  8.1153492E+00  -5.3121851E+01
2.1973034E+02  2.3107473E+01  -4.9536708E+01
8.0000000E+01  3.5000000E+00  2.0000000E+00
2.3005874E+02  2.7601154E+01  -5.4167251E+01
2.3003001E+02  2.7351446E+01  -5.6000172E+01
2.3286111E+02  2.7026497E+01  -5.6000544E+01
2.3288939E+02  2.7266130E+01  -5.4166524E+01
2.3081125E+02  2.7130611E+01  -5.5048414E+01
2.3360781E+02  2.6926483E+01  -5.5066135E+01
2.8926851E+02  7.6766382E+00  -5.5824170E+01
2.9887466E+02  0.0000000E+00  -5.5850015E+01
2.9882917E+02  5.7329313E-01  -5.5850013E+01
2.9870109E+02  1.1339439E+00  -5.5850013E+01
2.9849796E+02  1.6719721E+00  -5.5850005E+01
2.9823509E+02  2.1834343E+00  -5.5843533E+01
2.9792481E+02  2.6673630E+00  -5.5826875E+01
2.9757492E+02  3.1230528E+00  -5.5801167E+01
2.9724125E+02  3.5029606E+00  -5.5828748E+01
2.9688460E+02  3.8620882E+00  -5.5844664E+01
2.9650945E+02  4.2021721E+00  -5.5850006E+01
2.9611722E+02  4.5224452E+00  -5.5850013E+01
2.9570914E+02  4.8222817E+00  -5.5850013E+01
2.9528812E+02  5.1036529E+00  -5.5850013E+01
2.9485636E+02  5.3682639E+00  -5.5850013E+01
2.9441557E+02  5.6175335E+00  -5.5850014E+01
2.9396705E+02  5.8526249E+00  -5.5850013E+01
2.9351190E+02  6.0745973E+00  -5.5850013E+01
2.9305110E+02  6.2846213E+00  -5.5850012E+01
2.9258557E+02  6.4839331E+00  -5.5850012E+01
2.9211607E+02  6.6737038E+00  -5.5850011E+01
2.9164321E+02  6.8549743E+00  -5.5850011E+01
2.9116752E+02  7.0286465E+00  -5.5850011E+01
2.9068938E+02  7.1955010E+00  -5.5850005E+01
3.3116024E+02  9.0215295E-02  -5.3928967E+01
3.3116098E+02  1.6699816E-01  -5.3991658E+01
3.3215694E+02  2.3195628E-01  -5.4054649E+01
3.3315201E+02  2.2969797E-01  -5.4044643E+01
3.3461304E+02  5.8995510E-03  -5.4045253E+01
3.3461281E+02  3.0005511E-03  -5.4043624E+01
3.3364535E+02  0.0000000E+00  -5.3832875E+01
3.3265242E+02  0.0000000E+00  -5.3873631E+01
3.3165895E+02  2.0065834E-01  -5.4022086E+01
3.3165810E+02  1.3082478E-01  -5.3951734E+01
3.3215605E+02  1.6646139E-01  -5.3980136E+01
3.3265402E+02  1.9923013E-01  -5.4011400E+01
3.3165751E+02  4.6822295E-02  -5.3899418E+01
3.3215530E+02  9.0787770E-02  -5.3916749E+01
3.3265313E+02  1.3261825E-01  -5.3937708E+01
3.3315108E+02  1.6661806E-01  -5.3967864E+01
3.3364903E+02  1.9920566E-01  -5.3999295E+01
3.3265253E+02  4.8229282E-02  -5.3885472E+01
3.3315024E+02  9.4111196E-02  -5.3899784E+01
3.3364813E+02  1.3232727E-01  -5.3925703E+01
3.3414587E+02  1.5146588E-01  -5.3969401E+01
3.3364541E+02  5.4689969E-02  -5.3842554E+01
3.3411806E+02  6.4261905E-02  -5.4005399E+01
3.3116229E+02  1.5280054E-01  -5.4122156E+01
3.3116277E+02  7.4430509E-02  -5.4182896E+01
3.3215835E+02  0.0000000E+00  -5.4241261E+01
3.3315334E+02  0.0000000E+00  -5.4233644E+01
3.3461250E+02  3.2054020E-03  -5.4053463E+01
3.3461266E+02  5.7194495E-03  -5.4051280E+01
3.3413884E+02  1.6526206E-01  -5.4057840E+01
3.3414686E+02  1.4367349E-01  -5.4169460E+01
3.3364992E+02  1.6543428E-01  -5.4118644E+01
3.3315227E+02  1.9454178E-01  -5.4079707E+01
3.3413820E+02  1.5442434E-02  -5.4211124E+01
3.3364930E+02  1.0620502E-01  -5.4201869E+01
3.3315272E+02  1.1962981E-01  -5.4145073E+01
3.3265496E+02  1.5453061E-01  -5.4112910E+01
3.3215718E+02  1.9276531E-01  -5.4085050E+01
3.3315317E+02  4.4608151E-02  -5.4210428E+01
3.3265542E+02  7.8310325E-02  -5.4176682E+01
3.3215765E+02  1.1461342E-01  -5.4146211E+01
3.3165985E+02  1.5292624E-01  -5.4118480E+01
3.3215811E+02  3.8154539E-02  -5.4209499E+01
3.3166033E+02  7.4899012E-02  -5.4179694E+01
2.8057380E+02  7.5541992E+00  -5.3254838E+01
2.8101592E+02  7.6150182E+00  -5.3445161E+01
2.8169444E+02  7.5028002E+00  -5.3516458E+01
2.8237283E+02  7.3901287E+00  -5.3588218E+01
2.8305103E+02  7.2771220E+00  -5.3661167E+01
2.8372893E+02  7.1631755E+00  -5.3735379E+01
2.8440644E+02  7.0480106E+00  -5.3811161E+01
2.8508363E+02  6.9318703E+00  -5.3888151E+01
2.8572743E+02  6.8191442E+00  -5.3964416E+01
2.8643621E+02  6.6943072E+00  -5.4049182E+01
2.8711168E+02  6.5732113E+00  -5.4132802E+01
2.8778626E+02  6.4497364E+00  -5.4219835E+01
2.8846042E+02  6.3251072E+00  -5.4308430E+01
2.9030429E+02  5.9233841E+00  -5.4500575E+01
2.9041919E+02  5.9532526E+00  -5.4258881E+01
2.9057349E+02  5.9876757E+00  -5.3980385E+01
2.9060261E+02  5.8398281E+00  -5.3764508E+01
2.9055390E+02  5.6150879E+00  -5.3677627E+01
2.9049348E+02  5.3444417E+00  -5.3626278E+01
2.9042226E+02  5.0642512E+00  -5.3612252E+01
2.9033312E+02  4.7869701E+00  -5.3668143E+01
2.9024648E+02  4.4890557E+00  -5.3670557E+01
2.9016409E+02  4.2356320E+00  -5.3573002E+01
2.9007372E+02  4.0046755E+00  -5.3441174E+01
2.8997184E+02  3.7874254E+00  -5.3302261E+01
2.8985448E+02  3.5180538E+00  -5.3204249E+01
2.8942886E+02  3.5885492E+00  -5.3100925E+01
2.8908777E+02  3.8010928E+00  -5.3121230E+01
2.8874165E+02  4.0056379E+00  -5.3138241E+01
2.8838658E+02  4.1948093E+00  -5.3146900E+01
2.8802317E+02  4.3676379E+00  -5.3146896E+01
2.8765492E+02  4.5298290E+00  -5.3142340E+01
2.8728458E+02  4.6872035E+00  -5.3136982E+01
2.8691287E+02  4.8412839E+00  -5.3131648E+01
2.8654009E+02  4.9927735E+00  -5.3126508E+01
2.8616639E+02  5.1419919E+00  -5.3121675E+01
2.8579189E+02  5.2892130E+00  -5.3117243E+01
2.8541673E+02  5.4347570E+00  -5.3113278E+01
2.8504094E+02  5.5786682E+00  -5.3109808E+01
2.8466458E+02  5.7211193E+00  -5.3106867E+01
2.8428777E+02  5.8623752E+00  -5.3104459E+01
2.8391057E+02  6.0025779E+00  -5.3102571E+01
2.8353302E+02  6.1418691E+00  -5.3101192E+01
2.8315517E+02  6.2803218E+00  -5.3100314E+01
2.8277700E+02  6.4179230E+00  -5.3099923E+01
2.8239856E+02  6.5547790E+00  -5.3100012E+01
2.8201986E+02  6.6908861E+00  -5.3100563E+01
2.8164092E+02  6.8263442E+00  -5.3101568E+01
2.8126175E+02  6.9611771E+00  -5.3103034E+01
2.8088238E+02  7.0953954E+00  -5.3104953E+01
2.8103953E+02  7.5697375E+00  -5.3155135E+01
2.8138634E+02  7.7241909E+00  -5.3288002E+01
2.8075433E+02  7.2684647E+00  -5.3089125E+01
2.8124389E+02  7.3520801E+00  -5.3147661E+01
2.8173149E+02  7.4151272E+00  -5.3238960E+01
2.8220372E+02  7.4331756E+00  -5.3402408E+01
2.8125426E+02  7.2776831E+00  -5.3089121E+01
2.8173949E+02  7.3978476E+00  -5.3099749E+01
2.8222005E+02  7.5033388E+00  -5.3179537E+01
2.8268605E+02  7.5093767E+00  -5.3294770E+01
2.8170417E+02  7.0775105E+00  -5.3104876E+01
2.8218626E+02  7.2099121E+00  -5.3114108E+01
2.8266923E+02  7.3376728E+00  -5.3135169E+01
2.8315650E+02  7.4495571E+00  -5.3143241E+01
2.8349200E+02  7.3379213E+00  -5.3496764E+01
2.8212639E+02  6.9477669E+00  -5.3100902E+01
2.8260971E+02  7.0759592E+00  -5.3102488E+01
2.8309161E+02  7.2093560E+00  -5.3101805E+01
2.8357450E+02  7.3357358E+00  -5.3072285E+01
2.8397532E+02  7.3589614E+00  -5.3370291E+01
2.8428880E+02  7.1430645E+00  -5.3694534E+01
2.8254715E+02  6.8221717E+00  -5.3104501E+01
2.8303083E+02  6.9487252E+00  -5.3112642E+01
2.8351335E+02  7.0792779E+00  -5.3125289E+01
2.8399333E+02  7.2185982E+00  -5.3140413E+01
2.8445831E+02  7.3721198E+00  -5.3241590E+01
2.8477373E+02  7.1772952E+00  -5.3577094E+01
2.8296759E+02  6.6963999E+00  -5.3101334E+01
2.8345074E+02  6.8252120E+00  -5.3105833E+01
2.8393217E+02  6.9601158E+00  -5.3113171E+01
2.8441440E+02  7.0921790E+00  -5.3119811E+01
2.8489542E+02  7.2277928E+00  -5.3104136E+01
2.8525658E+02  7.1859555E+00  -5.3447389E+01
2.8556770E+02  6.9688124E+00  -5.3773067E+01
2.8290234E+02  6.4496475E+00  -5.3098056E+01
2.8338650E+02  6.5745704E+00  -5.3092589E+01
2.8386898E+02  6.7058771E+00  -5.3088841E+01
2.8434982E+02  6.8430612E+00  -5.3086965E+01
2.8482966E+02  6.9836965E+00  -5.3084705E+01
2.8531192E+02  7.1145518E+00  -5.3066978E+01
2.8573914E+02  7.1873458E+00  -5.3316377E+01
2.8605313E+02  6.9975897E+00  -5.3656098E+01
2.8332213E+02  6.3227481E+00  -5.3097878E+01
2.8380622E+02  6.4479750E+00  -5.3092431E+01
2.8428909E+02  6.5778917E+00  -5.3089177E+01
[...]
CELL_DATA 3444
SCALARS u_tension_in_N double 1
LOOKUP_TABLE default
-0
2.95187
2.3871
2.29794
2.91862
2.22041
14.7869
4.88436
-0
2.20343
-0
4.88436
0.0454651
0.0979003
2.29794
1.87924
1.94801
2.3871
1.74406
2.22041
2.39447
0.0454651
2.91862
3.32436
3.44577
2.67529
3.14708
3.44577
2.95187
3.32436
6.03677
4.26229
3.63644
4.87873
3.63644
3.0082
3.0082
3.14708
3.30088
2.70447
2.56911
3.30088
2.2453
3.90693
4.87873
4.50389
4.50389
3.46084
4.05584
5.56447
3.90693
5.56447
2.85794
4.26229
2.67529
6.03677
0.0979003
3.70091
-0
3.70091
0.378735
-0
-0
1.87924
1.27709
1.52622
1.48619
1.27709
2.39447
-0
1.94801
2.58676
1.74406
-0
0.378735
-0
1.57856
1.57856
2.58676
0.857542
1.52622
1.16043
1.16043
0.319543
0.53698
1.0816
0.857542
1.97052
0.319543
1.48619
1.0816
2.70447
1.81333
1.81333
1.60228
1.38984
2.18922
1.97052
2.18922
2.85794
2.18908
3.0107
2.41063
2.41063
4.05584
2.18908
3.46084
1.80105
2.56911
1.80105
1.38984
1.66793
1.10573
1.35953
1.66793
1.09183
1.95838
3.53011
2.55523
2.55523
1.50997
2.09903
3.06617
1.95838
3.53011
1.21556
3.0107
1.60228
5.17775
0.906327
2.2453
3.06617
11.2909
8.38709
9.65186
22.8098
14.9773
11.2909
14.6705
14.9773
22.8098
6.9447
6.81887
6.47054
6.50227
6.50227
5.92998
7.91979
6.47054
6.9447
9.65186
9.15693
10.6911
9.15693
7.44153
14.1687
7.91979
14.6705
6.03457
8.38709
6.81887
22.4789
67.9146
54.0551
54.0551
53.7013
79.7941
79.7941
-0
29.8166
29.8166
67.9146
-0
79.415
79.415
53.1692
-0
78.8948
133.83
67.4966
21.9511
67.4966
58.3761
-0
53.7013
22.4789
10.6911
6.03457
4.78221
8.66589
5.55758
6.94952
8.66589
5.45188
7.44153
14.1687
10.1851
13.6339
13.6339
9.656
21.365
10.1851
21.9511
8.15673
5.92998
5.45188
4.30413
4.96112
4.96112
3.732
5.06998
4.30413
5.55758
8.15673
6.44203
12.437
7.62803
9.10143
12.9494
5.06998
9.656
4.45589
6.94952
4.78221
12.9494
78.8948
52.5867
-0
52.5867
20.8219
21.365
103.827
156.61
39.967
-0
-0
20.8219
6.44203
53.1692
5.17775
2.67845
0.53698
0.203843
0.821761
0.709115
0.906327
1.09183
0.306203
1.35953
0.686919
1.03418
1.21556
0.541606
1.10573
0.709115
1.50997
0.306203
0.870909
0.611021
0.870909
0.797648
0.541606
0.686919
1.03418
0.599848
0.599848
1.81632
0.715911
0.437579
0.611021
0.899795
0.797648
0.821761
0.437579
2.67845
1.15247
1.6696
1.15247
0.481644
2.22552
0.899795
3.732
4.57279
4.45589
4.57279
3.93845
4.0692
5.82782
3.22054
5.82782
1.6696
2.09903
2.22552
1.44159
0.825089
0.673597
0.50362
1.44159
0.825089
1.79473
3.93845
2.69705
3.571
3.42087
2.69705
5.29558
1.79473
4.0692
0.623345
3.22054
0.481644
5.29558
0.715911
0.203843
1.00212
1.16962
1.00212
1.16962
0.673597
0.50362
1.14175
0.866323
0.798172
0.798172
1.31194
1.14175
0.623345
1.45497
1.31194
0.866323
0.676782
0.978104
-0
0.978104
1.45497
0.676782
1.29546
1.29546
35.5635
-0
-0
-0
1.80952
1.80952
-0
3.42087
2.20008
2.13057
2.13057
2.53634
2.86094
2.20008
2.86094
4.86574
3.19115
0.281465
3.1024
4.59292
3.19115
4.86574
2.53634
3.571
-0
3.8513
8.11439
4.00916
9.41853
4.00916
-0
4.32482
9.10143
7.17252
8.5226
6.62239
7.17252
8.5226
22.736
0.501061
15.9008
12.437
11.8333
-0
-0
6.62239
7.62803
-0
-0
-0
-0
-0
-0
-0
-0
-0
-0
-0
-0
-0
-0
-0
296.133
57.4858
-0
-0
-0
-0
1.23821
2.01812
-0
-0
-0
64.8471
-0
-0
-0
-0
-0
-0
-0
-0
-0
-0
-0
-0
-0
-0
-0
-0
-0
-0
-0
-0
2.63751
-0
2.63751
0.49712
-0
8.87451
7.33206
10.6525
8.87451
7.33206
0.49712
7.41717
-0
-0
-0
4.27637
64.8471
-0
33.4697
4.95764
25.6351
1.23821
63.0705
63.0705
24.7297
62.3531
0.962668
25.6351
0.962668
15.2973
2.01812
15.2973
21.5135
188.979
-0
77.0847
24.7297
14.6537
0.620042
23.6635
61.6296
0.766522
77.0847
62.3531
94.6521
157.098
0.766522
4.27637
1.78826
3.97162
1.50898
1.78826
3.97162
10.6525
7.2895
24.8472
6.94217
6.94217
7.2895
9.18897
3.68299
7.41717
4.04325
1.65011
10.1808
1.24454
4.04325
-0
-0
17.7613
3.68299
1.50898
14.6537
-0
9.18897
-0
0.014249
-0
-0
0.192841
0.895713
-0
0.350352
0.350375
0.350352
0.014249
-0
-0
-0
-0
-0
-0
-0
-0
-0
-0
-0
-0
-0
0.133041
-0
0.133041
-0
-0
0.350375
0.206797
0.206797
0.392172
0.392172
-0
0.178387
-0
-0
-0
-0
-0
0.336284
0.336284
-0
0.194227
0.194227
-0
-0
0.178387
-0
-0
-0
-0
-0
0.423088
-0
0.423088
-0
-0
-0
-0
3.45847
-0
-0
-0
19.4368
-0
5.96559
-0
-0
5.96559
-0
2.73408
-0
0.397389
-0
-0
-0
-0
0.352096
0.352096
-0
0.203453
-0
24.5922
24.0487
-0
13.2513
1.6117
14.0047
94.6521
-0
53.7559
53.8484
12.8519
53.7559
14.0047
53.8484
7.92646
7.92646
6.22978
5.8892
3.5489
5.31188
12.8519
7.02165
7.02165
4.91074
6.54873
11.5727
5.31188
54.3569
5.14506
5.74009
11.5727
76.5255
94.0708
75.9525
93.23
94.0708
93.23
13.8526
13.8526
75.4761
75.4761
12.4862
13.1775
75.9525
13.1775
92.4789
76.5255
74.7324
54.2772
91.9978
53.4971
54.2772
91.9978
11.7726
74.7324
9.98743
74.187
13.159
9.98743
74.187
11.7726
91.4111
92.4789
54.3569
12.4862
11.1179
131.563
4.07424
5.04145
73.9225
11.4707
5.14506
3.82742
7.13568
8.15395
8.15395
6.54873
3.82742
4.91074
38.655
11.1179
38.655
31.7554
31.7554
7.13568
32.6806
66.2599
34.2971
32.6806
34.2971
8.10394
-0
66.2599
91.4111
13.1334
13.1334
37.6878
8.10394
59.5663
88.3341
88.3341
217.972
64.6906
64.6906
10.3419
59.5663
79.3623
53.4971
137.48
72.7325
121.205
72.7325
121.205
-0
125.902
301.259
562.167
137.48
79.3623
37.6878
-0
61.6296
22.7579
60.7215
21.6797
22.7579
60.7215
1.24454
0.292774
4.00711
-0
0.430083
1.65011
0.430083
0.620042
60.0276
60.0276
0.156442
-0
20.7187
0.156442
-0
-0
0.482698
0.292774
21.6797
73.9919
-0
28.4859
24.6313
24.6313
116.138
14.6797
20.7187
73.9919
7.02892
23.6635
9.10172
8.04111
-0
10.3579
8.04111
9.10172
15.8259
7.1617
12.945
-0
-0
22.2398
-0
11.5386
9.30646
9.30646
11.5386
9.37494
9.61517
-0
8.8085
6.57611
6.57611
10.6048
8.82443
10.6048
8.48717
10.203
8.8085
9.83925
5.93569
9.61517
18.6929
8.82443
3.55552
9.37494
-0
-0
-0
-0
-0
-0
0.244799
3.70517
-0
0.244799
4.07254
-0
-0
-0
-0
2.38634
-0
-0
1.46856
1.46856
0.0448189
0.153991
0.959605
0.959605
0.831148
0.209665
0.0448189
2.33087
6.3634
2.33087
9.78723
-0
2.45396
0.831148
4.97978
0.209665
4.86765
-0
10.6614
8.37814
3.70517
9.76545
9.76545
11.9183
10.6972
10.6614
11.9183
8.37814
4.86765
9.477
9.477
10.248
10.6972
11.8027
-0
19.6153
-0
10.248
8.98388
11.8027
9.83925
22.6572
5.46836
5.46836
13.2846
5.98515
35.1918
-0
33.8266
-0
5.98515
11.9663
2.45396
14.5497
14.5497
-0
28.1008
-0
32.6193
13.2846
11.9663
4.07254
4.3762
10.203
-0
29.3997
20.2979
30.6832
-0
5.96481
12.7626
63.321
12.7626
30.6832
-0
-0
1.12531
2.48809
-0
-0
1.12531
35.9576
0.61802
17.5068
0.542454
17.6616
17.6616
0.61802
0.891797
0.891797
0.782848
0.433657
0.542454
0.782848
16.9865
0.947463
17.5068
0.947463
112.013
134.973
121.348
2.18881
7.42163
11.3659
6.34476
7.42163
11.3659
134.973
13.4327
202.167
165.017
202.167
6.34476
159.916
5.65203
159.916
10.5274
191.788
5.65203
28.7073
28.7073
16.6704
16.9865
0.314579
16.6704
0.314579
-0
16.149
0.735306
27.5639
0.433657
27.5639
27.5995
45.1208
9.32261
9.32261
27.5995
21.6695
-0
-0
16.149
10.5274
29.3997
0.365663
-0
3.11198
3.11198
5.93569
8.40296
8.40296
9.73505
7.99646
5.53605
9.73505
5.53605
3.55552
5.07836
2.84961
4.80342
5.07836
9.39865
7.65613
-0
-0
7.65613
14.5985
2.60369
7.99646
2.84961
9.39865
8.15012
8.15012
-0
8.98388
15.3742
17.138
-0
18.0061
8.48717
2.34217
2.60369
-0
1.14784
-0
2.34217
4.19666
-0
4.80342
9.08757
0.735306
15.223
9.32898
-0
7.22516
-0
9.32898
13.728
11.6361
-0
5.44891
-0
7.22516
6.49651
6.78268
8.79196
6.78268
6.08166
6.34707
8.15737
6.49651
8.15737
8.89005
8.79196
7.69675
19.6427
-0
25.3991
-0
13.399
15.8603
15.7269
-0
13.8099
-0
11.815
24.4561
13.8099
14.1422
15.7269
13.4001
15.5185
14.4108
13.4001
15.5185
14.1422
13.1152
26.342
13.399
-0
9.67851
22.9398
9.67851
128.03
29.4578
29.4578
50.8571
-0
-0
50.2026
49.6889
15.6855
50.8571
29.9731
15.6855
29.2655
49.0408
49.0408
28.0177
19.89
29.9731
47.4693
19.2644
-0
-0
19.2644
18.7798
6.85436
19.89
47.9087
49.6889
29.2655
12.5376
14.4108
11.3489
12.2222
12.2222
10.5789
13.4339
11.815
12.5376
47.9087
11.4609
11.4609
12.4893
10.3952
26.703
13.4339
26.703
11.364
28.0177
11.364
9.82549
10.5271
10.5271
8.99283
11.564
10.5789
12.4893
25.5684
9.33832
9.33832
10.6721
23.661
24.4623
11.564
24.4623
9.72844
10.3952
11.3489
25.5684
16.7233
46.7092
17.3803
17.3803
45.3419
15.9172
46.7092
16.7233
2.53886
2.86263
2.66223
2.53886
2.74403
2.85114
15.9172
2.15562
15.9257
18.7798
19.3177
44.0531
27.1077
-0
18.5358
18.5358
44.0528
-0
2.86552
19.3177
-0
2.15562
28.929
15.9257
45.3419
8.31138
13.1152
9.82549
-0
10.8687
-0
5.00583
-0
2.99784
2.99784
1.07447
4.68047
2.80816
6.78426
5.00583
5.44891
4.06355
4.06355
-0
6.8821
-0
14.424
5.04463
6.34707
5.67266
5.67266
4.64359
5.26828
5.8443
5.04463
5.8443
3.66676
6.08166
3.66676
6.55157
6.09155
6.55157
4.296
3.26995
6.8821
6.09155
5.26828
4.24562
4.24562
2.87226
3.85092
4.80211
3.26995
5.49772
2.87226
4.64359
4.68047
4.80211
2.61165
-0
-0
6.02479
-0
1.07447
2.61165
0.779309
2.23344
0.779309
0.203063
2.23344
-0
4.296
0.205105
5.69798
0.205105
0.633035
0.633035
0.203063
3.86001
1.92831
1.66264
1.66264
3.31366
3.49917
1.92831
3.49917
7.85411
3.86001
2.40933
5.69798
2.04609
5.33357
4.93282
2.04609
5.33357
2.40933
4.40589
3.52391
3.13648
3.13648
3.62303
4.01275
3.52391
4.01275
1.72862
3.85092
2.69361
4.58042
4.58042
1.42171
4.93282
1.42171
3.23693
2.69361
2.36232
3.23693
2.28903
2.28903
2.36232
3.62303
1.72862
3.31366
4.40589
0.312196
5.4312
8.99283
7.13664
6.42002
7.13664
5.14954
8.21141
5.49772
6.42002
10.6721
8.86501
8.86501
7.43462
8.00461
9.54236
8.21141
9.54236
7.43462
9.72844
5.83665
5.83665
5.2793
4.7428
5.9284
6.54223
4.7428
6.54223
8.59526
7.29765
-0
13.1793
5.35188
5.35188
7.29765
8.59526
8.00461
5.14954
16.1009
23.661
7.40546
-0
28.6487
4.11674
83.7802
7.40546
54.9611
28.6487
54.9611
41.1186
6.77614
-0
6.77614
5.2793
8.31138
5.9284
4.75042
3.95041
3.95041
8.76357
4.75042
4.34344
3.65069
-0
-0
10.242
3.65069
2.87985
4.24959
-0
-0
7.0931
2.5086
2.87985
2.5086
4.24959
4.34344
7.69675
13.2573
12.3805
22.556
23.8793
12.3503
23.8793
22.556
30.5184
20.7256
30.5184
29.2477
11.4122
12.3805
31.2659
31.2647
20.7256
11.729
12.3503
2.43849
2.66349
2.43849
3.99747
6.39699
6.39699
2.10546
6.73003
13.2573
2.28905
6.73007
2.28905
4.22077
2.66349
1.85949
2.65816
2.51621
3.69049
2.30562
1.93543
4.24913
3.03595
3.53629
3.69049
2.51621
2.10546
5.40096
5.90589
1.89721
1.89721
5.40096
5.90589
4.94429
10.5872
1.53891
4.94429
4.47961
1.53891
9.61286
1.70557
10.5872
1.70557
2.14532
2.14532
3.40774
3.40774
1.75352
3.03595
2.00306
3.53629
2.27646
3.88242
2.39743
2.00306
2.95246
1.38575
2.30562
11.4122
19.1378
4.2269
4.84977
4.2269
3.74176
4.84977
5.54811
5.54823
6.8822
6.88214
29.2477
10.499
6.26448
19.1378
5.10732
6.26448
9.62204
9.62204
27.0349
27.9838
4.12579
10.499
5.10732
27.9838
4.01225
3.66085
3.66103
3.32681
3.32681
4.01225
3.14195
2.94116
2.94116
2.54263
2.85434
3.14222
2.85434
3.17369
3.17369
3.33521
3.33521
7.40505
8.21306
2.73545
4.12579
2.50379
3.24197
2.50379
7.40505
2.73552
2.54263
8.21306
3.74176
17.61
17.61
2.30915
8.68616
8.68616
4.47961
15.7635
26.0539
-0
7.33206
14.449
15.7635
27.0349
0.205162
-0
9.61286
-0
-0
46.784
15.4152
26.2786
26.0539
11.729
1.75533
2.59827
1.56465
0.934353
1.55708
0.737667
2.27977
1.35552
1.77181
1.59079
2.10984
2.27977
1.77181
1.05588
3.41319
1.59079
0.365315
1.72608
1.54797
3.16977
1.54797
0.964845
1.60843
1.72608
2.38067
1.60843
1.37551
1.38587
1.20721
1.19385
1.19385
1.37551
1.45879
1.32651
1.10089
1.32651
1.10089
1.23607
1.20721
1.23607
0.976149
1.45879
1.38587
1.4145
1.44087
-0
2.1282
9.88823
4.968
1.05588
0.758257
0.874791
0.615532
0.758257
0.874791
-0
2.10984
17.0148
-0
4.08971
5.86696
21.7011
4.08971
0.615532
1.77552
0.647309
0.500863
1.77552
0.73715
3.33581
2.1282
0.73715
0.976149
1.971
0.79808
1.27024
1.971
1.0096
1.04303
0.908881
0.908881
0.821747
1.0096
0.88227
1.27024
1.44087
0.79808
1.11748
1.11748
1.73128
1.82333
0.638614
0.699823
0.652162
0.652162
0.513771
0.514133
0.538243
0.638614
0.699823
1.01354
0.821747
1.82333
0.538243
0.423832
0.771275
1.04303
1.67918
2.44923
0.429569
2.20528
1.0932
1.0932
0.726369
1.39062
1.06851
-0
1.06851
0.910379
1.39062
0.88227
2.2387
0.774514
0.910379
0.774514
0.743118
0.557574
1.08714
1.08714
1.73582
0.606754
-0
0.606754
0.3968
0.854168
0.711116
0.465271
0.854168
-0
0.816729
1.7187
0.817955
0.816729
0.578468
0.743118
0.557574
-0
0.605572
0.726369
0.500863
3.33581
5.86696
1.37983
2.7899
5.57169
1.37983
0.647309
0.405126
0.577544
0.577544
0.405126
1.73128
0.368699
14.8106
2.7899
0.933001
0.933001
0.368699
1.7755
0.613499
2.30344
0.711481
0.613499
2.30344
0.340134
5.57169
1.7755
0.513771
0.996978
0.423832
0.40853
0.431294
0.514133
0.605572
0.276191
0.711116
0.339878
0.489235
0.465271
0.312573
0.3968
0.431294
1.20793
0.392119
0.4642
1.20793
0.40853
0.276191
0.261241
0.339878
0.406097
0.235651
0.564067
0.196435
0.489235
0.4642
0.312573
0.996978
0.564067
1.63716
1.01354
0.711481
3.41139
3.41139
1.63716
0.392119
0.797742
0.694361
0.694361
0.797742
0.261241
4.66346
0.340134
2.31994
4.66346
2.31994
2.43004
0.682633
0.682633
0.382601
2.43004
0.382601
0.561253
0.561253
0.406097
0.304434
0.591556
1.00376
0.304434
0.591556
0.458445
0.266712
0.567947
0.618853
0.266712
0.567947
0.914424
0.235651
0.914424
1.42305
1.02876
1.42305
1.02876
0.746269
0.509468
0.70211
0.70211
1.27822
0.838805
0.509468
0.838805
0.618853
1.00376
0.746269
0.196435
0.458445
0.817955
0.466477
0.750487
0.33675
0.466477
0.33675
0.581306
0.750487
0.581306
0.431476
0.602369
-0
0.602369
-0
0.637022
0.31965
0.755505
0.635206
0.635206
0.637022
0.736605
0.385225
0.748734
0.498918
0.385225
0.748734
0.900053
0.431476
0.31965
0.736605
0.119788
2.11652
0.760924
3.92202
1.24977
-0
10.7569
0.700604
0.760924
0.755505
1.49351
0.498918
1.43625
1.43625
2.40531
0.680006
0.904438
0.700604
1.06441
1.06441
2.1868
0.904438
0.713327
2.40531
0.900053
2.1868
1.09625
3.32226
3.32226
2.09393
2.09393
4.37524
4.142
0.582133
4.142
4.37524
1.09625
0.680006
0.713327
-0
4.19167
4.77947
4.19167
0.582133
11.58
2.61635
11.58
11.0536
4.77947
22.4056
6.39793
5.30944
7.83549
15.9486
0.103643
5.30944
3.92202
1.27822
0.578468
2.20562
8.32735
7.02983
2.03954
9.35265
9.35265
7.3525
7.3525
5.08883
5.73215
4.75155
5.26583
4.75155
5.08883
7.79764
8.32735
7.79764
5.73215
8.92071
8.92071
7.86211
6.83056
6.83056
5.99883
7.86211
6.55324
5.99883
7.09119
8.67518
7.93499
7.09119
8.67518
6.55324
4.62131
4.62131
4.22769
4.22769
5.28113
4.23154
5.65311
6.18219
5.65311
5.28113
6.18219
5.13962
5.13962
4.41509
4.23154
4.84791
5.51604
4.84791
4.41509
5.51604
6.54101
5.64377
6.54101
7.07097
5.64377
5.85718
7.07097
6.26574
5.0904
5.85718
4.63958
5.0904
4.63958
4.3075
4.0872
4.77207
4.26332
4.0872
5.26445
5.26445
4.3075
7.93499
5.37723
6.26574
5.37723
4.77207
5.62005
5.62005
4.9433
4.78813
4.78813
3.78754
4.45694
3.87285
3.78754
3.87285
4.40953
3.87481
3.42799
4.45694
3.42799
4.9433
4.26332
4.40953
5.12305
4.42359
3.87481
4.46774
3.85343
4.42359
5.12305
4.46774
3.37336
3.85343
3.97931
3.37336
3.97855
3.97855
3.31529
3.29946
3.97931
3.29946
3.42212
3.42212
3.12405
3.12405
3.01733
3.01733
2.81547
2.9195
3.4549
2.81547
3.31529
2.9195
2.74175
2.74175
2.64854
2.26913
2.4526
2.11384
2.26913
2.64854
2.4526
2.72231
2.72231
2.84728
2.29773
2.84728
2.29773
2.11384
3.4549
1.94205
2.16218
1.94042
1.69972
1.69972
1.94042
2.16218
1.94205
1.69484
1.69484
1.59165
1.97755
1.59165
1.48328
1.50011
1.48328
0.181018
0.771091
-0
1.50011
1.46066
0.771091
1.52604
1.47946
0.694467
1.52604
1.47946
0.694467
-0
-0
-0
1.45279
1.45279
0.5082
0.5082
-0
-0
0.0967193
-0
1.46066
14.5617
6.94439
-0
9.8325
6.8731
6.8731
-0
6.94439
7.73525
10.0917
16.8438
2.8466
4.70019
4.70019
5.40339
5.40339
3.92701
9.11886
9.11886
7.73525
4.49876
6.78941
7.52188
1.4098
5.17247
0.116235
-0
5.17247
4.37799
0.72437
6.78941
4.16711
4.49876
4.90796
4.16711
4.18795
4.41086
3.63794
3.71877
3.48513
4.18795
4.90796
3.71877
3.89228
9.35096
3.92701
12.2382
-0
4.30175
4.30175
32.6581
9.50591
9.50591
63.5652
-0
326.732
32.6581
3.43634
2.94294
3.43634
2.94294
2.97002
2.43782
3.40236
2.43782
-0
2.79599
2.97548
3.40236
4.98416
176.878
-0
8.0407
-0
351.772
-0
176.878
2.97548
2.97002
3.63794
-0
0.907746
4.80771
11.4803
8.48723
-0
-0
4.80771
8.48723
-0
-0
0.144239
0.116235
4.39345
4.39345
-0
-0
-0
3.38777
3.38777
0.144239
11.018
1.81136
0.662889
15.0354
5.49076
18.6409
15.0354
12.4867
3.60655
10.7184
0.0815286
5.49076
6.17987
0.0815286
0.144119
7.1271
-0
7.1271
16.6056
0.302511
6.17987
0.302511
11.018
-0
4.37799
3.14896
3.97088
4.41086
2.8899
2.8899
3.95936
3.60925
3.73607
3.97088
3.14896
3.95936
3.48513
3.71011
-0
2.79599
2.98275
-0
5.9896
3.18626
2.98275
3.71011
5.5927
3.60925
3.89228
3.21418
2.62531
2.41436
3.21418
2.11664
2.41436
2.11664
-0
2.82774
2.62531
4.23839
-0
3.33601
6.54437
3.18626
5.59205
-0
6.54748
-0
3.33601
2.82774
3.73607
0.915503
-0
4.97179
4.91793
5.99564
11.6847
6.90187
4.91793
6.32573
6.02821
6.00096
4.58879
6.00096
6.02821
5.64063
5.64063
25.1251
11.4199
16.7791
6.17531
6.64834
8.15969
11.3254
5.929
6.64834
11.4199
8.15969
11.1174
11.6847
6.17531
5.45078
7.55627
6.03644
6.03644
7.40514
7.55627
8.84805
10.0834
10.0892
9.80704
6.4687
6.73914
6.44876
6.54082
6.73914
6.44876
9.80704
7.3393
7.43237
7.43237
10.2055
10.573
7.3393
10.573
6.31275
6.4687
5.929
11.842
8.2124
7.07795
7.97458
5.46837
5.38577
7.07795
6.54082
5.35528
3.78352
4.39926
2.79964
7.2871
5.94763
5.38161
4.8854
5.94763
4.8854
11.9939
7.2871
8.08575
4.24271
5.38161
8.08575
4.24271
6.31275
2.57617
4.4049
1.98983
4.09259
4.09259
2.57617
7.81267
5.18844
2.11596
2.11596
3.39502
3.40178
1.98983
5.18844
5.18191
7.81267
4.4049
3.40178
8.2124
10.2055
5.41434
10.4132
15.8562
18.8721
11.979
11.2569
12.2691
14.0406
14.0406
11.979
10.324
10.324
10.6089
10.6089
12.5811
8.35031
12.2691
-0
15.787
11.2569
11.9939
16.24
-0
16.3624
-0
8.54465
8.35031
10.9057
10.9057
17.6461
12.6752
18.2102
17.6461
12.6752
8.36235
11.016
16.5934
8.3629
8.59426
8.36235
11.016
8.54465
12.4017
12.4017
10.8741
12.2889
18.0415
10.8741
8.3629
8.42154
8.23476
8.23476
8.42595
6.4193
8.42154
6.51339
10.8168
8.59426
18.2102
6.51339
-0
23.5586
-0
13.2197
16.9268
9.4238
13.3104
-0
6.43886
13.2197
6.4193
8.24539
12.5811
15.787
3.39502
-0
18.4677
2.32745
-0
-0
-0
18.0415
3.45108
18.0655
3.36661
3.45108
3.36661
12.3075
18.0655
11.8547
17.2563
17.2563
12.3075
3.22991
12.2889
3.85746
16.6857
5.71206
3.85746
11.2153
16.6857
10.4039
17.0972
12.493
10.4039
17.0972
11.2153
2.75396
3.22991
-0
11.8547
2.32745
-0
4.28643
2.52489
12.1029
12.1029
17.8556
13.3344
2.22333
13.3344
12.493
8.71856
30.3802
-0
63.7267
17.8556
7.05927
2.75396
15.9941
8.42595
10.8352
8.4815
10.536
10.8352
8.4815
6.43886
8.28085
6.47512
6.47512
8.28085
13.3104
8.24888
8.24539
8.15554
10.1237
7.86156
9.56974
10.1237
7.86156
6.35564
8.15554
5.95132
7.84856
7.19481
6.35564
7.84856
13.4795
7.05685
8.24888
10.536
5.95132
10.4639
10.6248
10.6248
13.4105
13.4795
4.9169
9.42961
5.00885
4.9169
-0
10.6572
-0
5.00885
13.3314
10.6221
12.8455
13.3314
10.6221
5.75995
5.75995
-0
5.00943
11.2436
8.42376
5.00943
10.0301
10.6572
13.4105
4.91463
10.4639
6.5293
9.56974
4.3344
5.10005
5.10005
6.5293
4.51705
4.51705
2.59174
4.17494
4.3344
2.59174
5.49187
7.19481
6.24407
6.24407
9.6683
9.6683
7.68247
7.68247
2.16589
3.93944
4.11881
4.11881
8.74949
1.70283
3.93944
-0
-0
4.17494
5.49187
2.16589
12.8455
4.83439
2.62858
3.10018
4.83439
2.62858
2.96231
10.0301
-0
10.1703
9.31515
9.31515
4.91463
2.70262
2.70262
-0
0.921969
3.10018
1.31354
-0
11.4429
-0
3.87938
6.69576
1.25365
1.25365
1.70283
7.05685
7.05927
10.8168
2.67928
2.67928
3.15403
2.83785
2.45175
1.8228
2.45175
1.8228
2.14576
2.38362
2.8445
2.14576
2.38362
2.83785
3.29111
3.15403
3.29111
2.8445
3.77987
3.7127
3.7127
3.29312
3.29312
3.28023
3.77987
3.79387
3.28023
4.29489
4.25291
4.79103
4.25291
3.79387
2.72578
2.72578
2.67533
2.67533
3.22133
3.22133
4.28965
3.76931
4.83556
4.28965
4.29489
3.76931
3.14485
3.14485
3.73763
3.54078
4.24426
4.17235
3.54078
3.73763
4.24426
4.77332
4.83556
4.77332
4.17235
5.36607
5.36607
5.34729
4.71523
5.33052
4.71523
4.66113
4.66113
4.39335
4.00984
5.06981
5.22254
5.22254
4.39335
5.34729
5.99615
4.00984
4.79103
5.33052
5.94435
5.99615
5.94435
6.68726
6.64062
6.68726
5.84108
6.64062
5.84108
4.80521
5.76935
5.4345
4.80521
5.4345
6.44833
6.13331
5.21788
5.76935
5.21788
6.44833
5.06981