# vtk DataFile Version 2.0
rig or elements
ASCII

DATASET UNSTRUCTURED_GRID
POINTS 436 float
2.9039293E+02  3.4497041E-01  -5.2758814E+01
2.9039762E+02  0.0000000E+00  -5.2755404E+01
2.9037689E+02  7.2780825E-01  -5.2770583E+01
2.9039293E+02  3.4497041E-01  -5.2758814E+01
2.9034823E+02  1.1095617E+00  -5.2790685E+01
2.9037689E+02  7.2780825E-01  -5.2770583E+01
2.9030577E+02  1.4895019E+00  -5.2819026E+01
2.9034823E+02  1.1095617E+00  -5.2790685E+01
2.9024647E+02  1.8664978E+00  -5.2855339E+01
2.9030577E+02  1.4895019E+00  -5.2819026E+01
2.9016999E+02  2.2395560E+00  -5.2899388E+01
2.9024647E+02  1.8664978E+00  -5.2855339E+01
2.9007316E+02  2.6069296E+00  -5.2950587E+01
2.9016999E+02  2.2395560E+00  -5.2899388E+01
2.8995621E+02  2.9673914E+00  -5.3008488E+01
2.9007316E+02  2.6069296E+00  -5.2950587E+01
2.8980369E+02  3.3541063E+00  -5.3079305E+01
2.8995621E+02  2.9673914E+00  -5.3008488E+01
2.8980369E+02  3.3541063E+00  -5.3079305E+01
2.8942886E+02  3.5885492E+00  -5.3100925E+01
2.8942886E+02  3.5885492E+00  -5.3100925E+01
2.8908777E+02  3.8010928E+00  -5.3121230E+01
2.8874165E+02  4.0056379E+00  -5.3138241E+01
2.8908777E+02  3.8010928E+00  -5.3121230E+01
2.8838658E+02  4.1948093E+00  -5.3146900E+01
2.8874165E+02  4.0056379E+00  -5.3138241E+01
2.8802317E+02  4.3676379E+00  -5.3146896E+01
2.8838658E+02  4.1948093E+00  -5.3146900E+01
2.8765492E+02  4.5298290E+00  -5.3142340E+01
2.8802317E+02  4.3676379E+00  -5.3146896E+01
2.8765492E+02  4.5298290E+00  -5.3142340E+01
2.8728458E+02  4.6872035E+00  -5.3136982E+01
2.8691287E+02  4.8412839E+00  -5.3131648E+01
2.8728458E+02  4.6872035E+00  -5.3136982E+01
2.8654009E+02  4.9927735E+00  -5.3126508E+01
2.8691287E+02  4.8412839E+00  -5.3131648E+01
2.8616639E+02  5.1419919E+00  -5.3121675E+01
2.8654009E+02  4.9927735E+00  -5.3126508E+01
2.8579189E+02  5.2892130E+00  -5.3117243E+01
2.8616639E+02  5.1419919E+00  -5.3121675E+01
2.8541673E+02  5.4347570E+00  -5.3113278E+01
2.8579189E+02  5.2892130E+00  -5.3117243E+01
2.8504094E+02  5.5786682E+00  -5.3109808E+01
2.8541673E+02  5.4347570E+00  -5.3113278E+01
2.8466458E+02  5.7211193E+00  -5.3106867E+01
2.8504094E+02  5.5786682E+00  -5.3109808E+01
2.8428777E+02  5.8623752E+00  -5.3104459E+01
2.8466458E+02  5.7211193E+00  -5.3106867E+01
2.8391057E+02  6.0025779E+00  -5.3102571E+01
2.8428777E+02  5.8623752E+00  -5.3104459E+01
2.8353302E+02  6.1418691E+00  -5.3101192E+01
2.8391057E+02  6.0025779E+00  -5.3102571E+01
2.8315517E+02  6.2803218E+00  -5.3100314E+01
2.8353302E+02  6.1418691E+00  -5.3101192E+01
2.8277700E+02  6.4179230E+00  -5.3099923E+01
2.8315517E+02  6.2803218E+00  -5.3100314E+01
2.8239856E+02  6.5547790E+00  -5.3100012E+01
2.8277700E+02  6.4179230E+00  -5.3099923E+01
2.8201986E+02  6.6908861E+00  -5.3100563E+01
2.8239856E+02  6.5547790E+00  -5.3100012E+01
2.8164092E+02  6.8263442E+00  -5.3101568E+01
2.8201986E+02  6.6908861E+00  -5.3100563E+01
2.8126175E+02  6.9611771E+00  -5.3103034E+01
2.8164092E+02  6.8263442E+00  -5.3101568E+01
2.8088238E+02  7.0953954E+00  -5.3104953E+01
2.8126175E+02  6.9611771E+00  -5.3103034E+01
2.8031321E+02  7.2964108E+00  -5.3108683E+01
2.8088238E+02  7.0953954E+00  -5.3104953E+01
2.8031321E+02  7.2964108E+00  -5.3108683E+01
2.8057380E+02  7.5541992E+00  -5.3254838E+01
2.8040513E+02  7.7155744E+00  -5.3381448E+01
2.8057380E+02  7.5541992E+00  -5.3254838E+01
2.8040513E+02  7.7155744E+00  -5.3381448E+01
2.8101592E+02  7.6150182E+00  -5.3445161E+01
2.8101592E+02  7.6150182E+00  -5.3445161E+01
2.8169444E+02  7.5028002E+00  -5.3516458E+01
2.8169444E+02  7.5028002E+00  -5.3516458E+01
2.8237283E+02  7.3901287E+00  -5.3588218E+01
2.8237283E+02  7.3901287E+00  -5.3588218E+01
2.8305103E+02  7.2771220E+00  -5.3661167E+01
2.8305103E+02  7.2771220E+00  -5.3661167E+01
2.8372893E+02  7.1631755E+00  -5.3735379E+01
2.8372893E+02  7.1631755E+00  -5.3735379E+01
2.8440644E+02  7.0480106E+00  -5.3811161E+01
2.8440644E+02  7.0480106E+00  -5.3811161E+01
2.8508363E+02  6.9318703E+00  -5.3888151E+01
2.8508363E+02  6.9318703E+00  -5.3888151E+01
2.8572743E+02  6.8191442E+00  -5.3964416E+01
2.8643621E+02  6.6943072E+00  -5.4049182E+01
2.8572743E+02  6.8191442E+00  -5.3964416E+01
2.8711168E+02  6.5732113E+00  -5.4132802E+01
2.8643621E+02  6.6943072E+00  -5.4049182E+01
2.8778626E+02  6.4497364E+00  -5.4219835E+01
2.8711168E+02  6.5732113E+00  -5.4132802E+01
2.8846042E+02  6.3251072E+00  -5.4308430E+01
2.8778626E+02  6.4497364E+00  -5.4219835E+01
2.8940316E+02  6.1479545E+00  -5.4436546E+01
2.8846042E+02  6.3251072E+00  -5.4308430E+01
2.9028109E+02  6.0145063E+00  -5.4595002E+01
2.9078573E+02  5.9014290E+00  -5.4663527E+01
2.9078573E+02  5.9014290E+00  -5.4663527E+01
2.9133668E+02  5.7284975E+00  -5.4698751E+01
2.9133668E+02  5.7284975E+00  -5.4698751E+01
2.9188374E+02  5.5500933E+00  -5.4734603E+01
2.9188374E+02  5.5500933E+00  -5.4734603E+01
2.9242611E+02  5.3630344E+00  -5.4769581E+01
2.9242611E+02  5.3630344E+00  -5.4769581E+01
2.9296483E+02  5.1608824E+00  -5.4794707E+01
2.9296483E+02  5.1608824E+00  -5.4794707E+01
2.9349826E+02  4.9497920E+00  -5.4824294E+01
2.9349826E+02  4.9497920E+00  -5.4824294E+01
2.9402729E+02  4.7280162E+00  -5.4855649E+01
2.9402729E+02  4.7280162E+00  -5.4855649E+01
2.9439845E+02  4.5717824E+00  -5.4881238E+01
2.9439845E+02  4.5717824E+00  -5.4881238E+01
2.9487479E+02  4.2971723E+00  -5.4898863E+01
2.9487479E+02  4.2971723E+00  -5.4898863E+01
2.9537719E+02  3.9871256E+00  -5.4866899E+01
2.9537719E+02  3.9871256E+00  -5.4866899E+01
2.9592204E+02  4.0864843E+00  -5.4685153E+01
2.9592204E+02  4.0864843E+00  -5.4685153E+01
2.9643411E+02  4.0466947E+00  -5.4423071E+01
2.9643411E+02  4.0466947E+00  -5.4423071E+01
2.9715910E+02  3.8369358E+00  -5.4076322E+01
2.8991249E+02  6.1462256E+00  -5.4563540E+01
2.8940316E+02  6.1479545E+00  -5.4436546E+01
2.9044549E+02  6.0788251E+00  -5.4542366E+01
2.8991249E+02  6.1462256E+00  -5.4563540E+01
2.9076902E+02  6.4150523E+00  -5.4932870E+01
2.9044549E+02  6.0788251E+00  -5.4542366E+01
2.9053737E+02  6.9512931E+00  -5.5486229E+01
2.9076902E+02  6.4150523E+00  -5.4932870E+01
3.3461281E+02  3.0005511E-03  -5.4043624E+01
3.3461258E+02  0.0000000E+00  -5.4042190E+01
3.3461304E+02  5.8995510E-03  -5.4045253E+01
3.3461281E+02  3.0005511E-03  -5.4043624E+01
3.3461310E+02  7.1959847E-03  -5.4048323E+01
3.3461304E+02  5.8995510E-03  -5.4045253E+01
3.3461266E+02  5.7194495E-03  -5.4051280E+01
3.3461310E+02  7.1959847E-03  -5.4048323E+01
3.3461250E+02  3.2054020E-03  -5.4053463E+01
3.3461266E+02  5.7194495E-03  -5.4051280E+01
3.3461274E+02  0.0000000E+00  -5.4054347E+01
3.3461250E+02  3.2054020E-03  -5.4053463E+01
2.7997575E+02  7.4136256E+00  -5.3110846E+01
2.8031321E+02  7.2964108E+00  -5.3108683E+01
2.7963827E+02  7.5307657E+00  -5.3112914E+01
2.7997575E+02  7.4136256E+00  -5.3110846E+01
2.7930076E+02  7.6478309E+00  -5.3114889E+01
2.7963827E+02  7.5307657E+00  -5.3112914E+01
2.7896322E+02  7.7648217E+00  -5.3116770E+01
2.7930076E+02  7.6478309E+00  -5.3114889E+01
2.7862566E+02  7.8817382E+00  -5.3118557E+01
2.7896322E+02  7.7648217E+00  -5.3116770E+01
2.7828807E+02  7.9985806E+00  -5.3120251E+01
2.7862566E+02  7.8817382E+00  -5.3118557E+01
2.7795046E+02  8.1153492E+00  -5.3121851E+01
2.7828807E+02  7.9985806E+00  -5.3120251E+01
2.8005445E+02  7.7728001E+00  -5.3344672E+01
2.8040513E+02  7.7155744E+00  -5.3381448E+01
2.7970377E+02  7.8299872E+00  -5.3307793E+01
2.8005445E+02  7.7728001E+00  -5.3344672E+01
2.7935310E+02  7.8871358E+00  -5.3270810E+01
2.7970377E+02  7.8299872E+00  -5.3307793E+01
2.7900243E+02  7.9442461E+00  -5.3233724E+01
2.7935310E+02  7.8871358E+00  -5.3270810E+01
2.7865177E+02  8.0013183E+00  -5.3196536E+01
2.7900243E+02  7.9442461E+00  -5.3233724E+01
2.7830111E+02  8.0583526E+00  -5.3159244E+01
2.7865177E+02  8.0013183E+00  -5.3196536E+01
2.7795046E+02  8.1153492E+00  -5.3121851E+01
2.7830111E+02  8.0583526E+00  -5.3159244E+01
2.6631384E+02  1.1177385E+01  -5.2561381E+01
2.7795046E+02  8.1153492E+00  -5.3121851E+01
2.5467284E+02  1.4207145E+01  -5.1921549E+01
2.6631384E+02  1.1177385E+01  -5.2561381E+01
2.4302816E+02  1.7205113E+01  -5.1203443E+01
2.5467284E+02  1.4207145E+01  -5.1921549E+01
2.3138045E+02  2.0171746E+01  -5.0408140E+01
2.4302816E+02  1.7205113E+01  -5.1203443E+01
2.1973034E+02  2.3107473E+01  -4.9536708E+01
2.3138045E+02  2.0171746E+01  -5.0408140E+01
1.9969390E+02  2.0171202E+01  -4.2434201E+01
2.1973034E+02  2.3107473E+01  -4.9536708E+01
1.7968314E+02  1.7281033E+01  -3.5240387E+01
1.9969390E+02  2.0171202E+01  -4.2434201E+01
1.5969767E+02  1.4436355E+01  -2.7958162E+01
1.7968314E+02  1.7281033E+01  -3.5240387E+01
1.3973705E+02  1.1636542E+01  -2.0590322E+01
1.5969767E+02  1.4436355E+01  -2.7958162E+01
1.1980087E+02  8.8809695E+00  -1.3139602E+01
1.3973705E+02  1.1636542E+01  -2.0590322E+01
9.9888661E+01  6.1690000E+00  -5.6086355E+00
1.1980087E+02  8.8809695E+00  -1.3139602E+01
8.0000000E+01  3.5000000E+00  2.0000000E+00
9.9888661E+01  6.1690000E+00  -5.6086355E+00
2.3005874E+02  2.7601154E+01  -5.4167251E+01
2.3003001E+02  2.7351446E+01  -5.6000172E+01
2.3003001E+02  2.7351446E+01  -5.6000172E+01
2.3286111E+02  2.7026497E+01  -5.6000544E+01
2.3288939E+02  2.7266130E+01  -5.4166524E+01
2.3286111E+02  2.7026497E+01  -5.6000544E+01
2.3005874E+02  2.7601154E+01  -5.4167251E+01
2.3288939E+02  2.7266130E+01  -5.4166524E+01
2.3081125E+02  2.7130611E+01  -5.5048414E+01
2.3005874E+02  2.7601154E+01  -5.4167251E+01
2.3081125E+02  2.7130611E+01  -5.5048414E+01
2.3003001E+02  2.7351446E+01  -5.6000172E+01
2.3081125E+02  2.7130611E+01  -5.5048414E+01
2.3288939E+02  2.7266130E+01  -5.4166524E+01
2.3081125E+02  2.7130611E+01  -5.5048414E+01
2.3286111E+02  2.7026497E+01  -5.6000544E+01
2.3286111E+02  2.7026497E+01  -5.6000544E+01
2.3360781E+02  2.6926483E+01  -5.5066135E+01
2.3288939E+02  2.7266130E+01  -5.4166524E+01
2.3360781E+02  2.6926483E+01  -5.5066135E+01
2.3360781E+02  2.6926483E+01  -5.5066135E+01
2.4482126E+02  2.3349896E+01  -5.5674913E+01
2.4482126E+02  2.3349896E+01  -5.5674913E+01
2.5601243E+02  1.9667237E+01  -5.5989909E+01
2.5601243E+02  1.9667237E+01  -5.5989909E+01
2.6717131E+02  1.5874852E+01  -5.6000032E+01
2.6717131E+02  1.5874852E+01  -5.6000032E+01
2.7825473E+02  1.1867618E+01  -5.6000016E+01
2.7825473E+02  1.1867618E+01  -5.6000016E+01
2.8926851E+02  7.6766382E+00  -5.5824170E+01
2.1973034E+02  2.3107473E+01  -4.9536708E+01
2.2342611E+02  2.4440424E+01  -5.1375571E+01
2.2342611E+02  2.4440424E+01  -5.1375571E+01
2.2711976E+02  2.5781448E+01  -5.3212810E+01
2.2711976E+02  2.5781448E+01  -5.3212810E+01
2.3081125E+02  2.7130611E+01  -5.5048414E+01
2.3005874E+02  2.7601154E+01  -5.4167251E+01
2.3286111E+02  2.7026497E+01  -5.6000544E+01
2.3003001E+02  2.7351446E+01  -5.6000172E+01
2.3288939E+02  2.7266130E+01  -5.4166524E+01
2.8926851E+02  7.6766382E+00  -5.5824170E+01
2.9053737E+02  6.9512931E+00  -5.5486229E+01
2.9889617E+02  0.0000000E+00  -5.5299377E+01
2.9887466E+02  0.0000000E+00  -5.5850015E+01
2.9885161E+02  6.3241562E-01  -5.5292215E+01
2.9882917E+02  5.7329313E-01  -5.5850013E+01
2.9872335E+02  1.2531769E+00  -5.5278328E+01
2.9870109E+02  1.1339439E+00  -5.5850013E+01
2.9849345E+02  1.8437378E+00  -5.5259011E+01
2.9849796E+02  1.6719721E+00  -5.5850005E+01
2.9816147E+02  2.3834612E+00  -5.5236957E+01
2.9823509E+02  2.1834343E+00  -5.5843533E+01
2.9775595E+02  2.8704100E+00  -5.5215966E+01
2.9792481E+02  2.6673630E+00  -5.5826875E+01
2.9733933E+02  3.3470944E+00  -5.5181226E+01
2.9757492E+02  3.1230528E+00  -5.5801167E+01
2.9724125E+02  3.5029606E+00  -5.5828748E+01
2.9752350E+02  3.6879202E+00  -5.5365667E+01
2.9688460E+02  3.8620882E+00  -5.5844664E+01
2.9734744E+02  4.1631118E+00  -5.5521515E+01
2.9650945E+02  4.2021721E+00  -5.5850006E+01
2.9698980E+02  4.5467052E+00  -5.5600086E+01
2.9611722E+02  4.5224452E+00  -5.5850013E+01
2.9654627E+02  4.8386936E+00  -5.5622352E+01
2.9570914E+02  4.8222817E+00  -5.5850013E+01
2.9607413E+02  5.0834783E+00  -5.5629565E+01
2.9528812E+02  5.1036529E+00  -5.5850013E+01
2.9559163E+02  5.3066775E+00  -5.5613272E+01
2.9485636E+02  5.3682639E+00  -5.5850013E+01
2.9509910E+02  5.5063199E+00  -5.5591259E+01
2.9441557E+02  5.6175335E+00  -5.5850014E+01
2.9459941E+02  5.6876133E+00  -5.5569990E+01
2.9396705E+02  5.8526249E+00  -5.5850013E+01
2.9409524E+02  5.8558245E+00  -5.5546210E+01
2.9351190E+02  6.0745973E+00  -5.5850013E+01
2.9358932E+02  6.0184635E+00  -5.5521330E+01
2.9305110E+02  6.2846213E+00  -5.5850012E+01
2.9308237E+02  6.1786129E+00  -5.5501475E+01
2.9258557E+02  6.4839331E+00  -5.5850012E+01
2.9257424E+02  6.3355472E+00  -5.5486672E+01
2.9211607E+02  6.6737038E+00  -5.5850011E+01
2.9206511E+02  6.4896195E+00  -5.5476763E+01
2.9164321E+02  6.8549743E+00  -5.5850011E+01
2.9155571E+02  6.6430599E+00  -5.5473299E+01
2.9116752E+02  7.0286465E+00  -5.5850011E+01
2.9104658E+02  6.7974059E+00  -5.5477309E+01
2.9053737E+02  6.9512931E+00  -5.5486229E+01
2.9068938E+02  7.1955010E+00  -5.5850005E+01
2.8926851E+02  7.6766382E+00  -5.5824170E+01
2.9068938E+02  7.1955010E+00  -5.5850005E+01
2.9068938E+02  7.1955010E+00  -5.5850005E+01
2.9116752E+02  7.0286465E+00  -5.5850011E+01
2.9053737E+02  6.9512931E+00  -5.5486229E+01
2.9079469E+02  6.8741851E+00  -5.5481956E+01
2.9079469E+02  6.8741851E+00  -5.5481956E+01
2.9104658E+02  6.7974059E+00  -5.5477309E+01
2.9116752E+02  7.0286465E+00  -5.5850011E+01
2.9164321E+02  6.8549743E+00  -5.5850011E+01
2.9128916E+02  6.7233588E+00  -5.5474084E+01
2.9155571E+02  6.6430599E+00  -5.5473299E+01
2.9104658E+02  6.7974059E+00  -5.5477309E+01
2.9128916E+02  6.7233588E+00  -5.5474084E+01
2.9164321E+02  6.8549743E+00  -5.5850011E+01
2.9211607E+02  6.6737038E+00  -5.5850011E+01
2.9182217E+02  6.5624005E+00  -5.5473938E+01
2.9206511E+02  6.4896195E+00  -5.5476763E+01
2.9155571E+02  6.6430599E+00  -5.5473299E+01
2.9182217E+02  6.5624005E+00  -5.5473938E+01
2.9211607E+02  6.6737038E+00  -5.5850011E+01
2.9258557E+02  6.4839331E+00  -5.5850012E+01
2.9231718E+02  6.4133807E+00  -5.5480737E+01
2.9257424E+02  6.3355472E+00  -5.5486672E+01
2.9206511E+02  6.4896195E+00  -5.5476763E+01
2.9231718E+02  6.4133807E+00  -5.5480737E+01
2.9258557E+02  6.4839331E+00  -5.5850012E+01
2.9305110E+02  6.2846213E+00  -5.5850012E+01
2.9284947E+02  6.2505147E+00  -5.5493670E+01
2.9308237E+02  6.1786129E+00  -5.5501475E+01
2.9257424E+02  6.3355472E+00  -5.5486672E+01
2.9284947E+02  6.2505147E+00  -5.5493670E+01
2.9305110E+02  6.2846213E+00  -5.5850012E+01
2.9351190E+02  6.0745973E+00  -5.5850013E+01
2.9334310E+02  6.0964150E+00  -5.5510447E+01
2.9358932E+02  6.0184635E+00  -5.5521330E+01
2.9308237E+02  6.1786129E+00  -5.5501475E+01
2.9334310E+02  6.0964150E+00  -5.5510447E+01
2.9351190E+02  6.0745973E+00  -5.5850013E+01
2.9396705E+02  5.8526249E+00  -5.5850013E+01
2.9383509E+02  5.9389764E+00  -5.5531557E+01
2.9409524E+02  5.8558245E+00  -5.5546210E+01
2.9358932E+02  6.0184635E+00  -5.5521330E+01
2.9383509E+02  5.9389764E+00  -5.5531557E+01
2.9396705E+02  5.8526249E+00  -5.5850013E+01
2.9441557E+02  5.6175335E+00  -5.5850014E+01
2.9436394E+02  5.7669288E+00  -5.5558275E+01
2.9459941E+02  5.6876133E+00  -5.5569990E+01
2.9409524E+02  5.8558245E+00  -5.5546210E+01
2.9436394E+02  5.7669288E+00  -5.5558275E+01
2.9441557E+02  5.6175335E+00  -5.5850014E+01
2.9485636E+02  5.3682639E+00  -5.5850013E+01
2.9485243E+02  5.5978204E+00  -5.5579165E+01
2.9509910E+02  5.5063199E+00  -5.5591259E+01
2.9459941E+02  5.6876133E+00  -5.5569990E+01
2.9485243E+02  5.5978204E+00  -5.5579165E+01
2.9485636E+02  5.3682639E+00  -5.5850013E+01
2.9528812E+02  5.1036529E+00  -5.5850013E+01
2.9533575E+02  5.4153696E+00  -5.5598972E+01
2.9559163E+02  5.3066775E+00  -5.5613272E+01
2.9509910E+02  5.5063199E+00  -5.5591259E+01
2.9533575E+02  5.4153696E+00  -5.5598972E+01
2.9528812E+02  5.1036529E+00  -5.5850013E+01
2.9570914E+02  4.8222817E+00  -5.5850013E+01
2.9584621E+02  5.1941449E+00  -5.5618286E+01
2.9607413E+02  5.0834783E+00  -5.5629565E+01
2.9559163E+02  5.3066775E+00  -5.5613272E+01
2.9584621E+02  5.1941449E+00  -5.5618286E+01
2.9570914E+02  4.8222817E+00  -5.5850013E+01
2.9611722E+02  4.5224452E+00  -5.5850013E+01
2.9631085E+02  4.9672629E+00  -5.5624288E+01
2.9654627E+02  4.8386936E+00  -5.5622352E+01
2.9607413E+02  5.0834783E+00  -5.5629565E+01
2.9631085E+02  4.9672629E+00  -5.5624288E+01
2.9611722E+02  4.5224452E+00  -5.5850013E+01
2.9650945E+02  4.2021721E+00  -5.5850006E+01
2.9675921E+02  4.7110355E+00  -5.5606691E+01
2.9698980E+02  4.5467052E+00  -5.5600086E+01
2.9654627E+02  4.8386936E+00  -5.5622352E+01
2.9675921E+02  4.7110355E+00  -5.5606691E+01
2.9650945E+02  4.2021721E+00  -5.5850006E+01
2.9688460E+02  3.8620882E+00  -5.5844664E+01
2.9718940E+02  4.3634512E+00  -5.5562828E+01
2.9734744E+02  4.1631118E+00  -5.5521515E+01
2.9698980E+02  4.5467052E+00  -5.5600086E+01
2.9718940E+02  4.3634512E+00  -5.5562828E+01
2.9688460E+02  3.8620882E+00  -5.5844664E+01
2.9724125E+02  3.5029606E+00  -5.5828748E+01
2.9745363E+02  3.9397248E+00  -5.5446390E+01
2.9752350E+02  3.6879202E+00  -5.5365667E+01
2.9734744E+02  4.1631118E+00  -5.5521515E+01
2.9745363E+02  3.9397248E+00  -5.5446390E+01
2.9724125E+02  3.5029606E+00  -5.5828748E+01
2.9757492E+02  3.1230528E+00  -5.5801167E+01
2.9733933E+02  3.3470944E+00  -5.5181226E+01
2.9730783E+02  3.3713268E+00  -5.5179650E+01
2.9730783E+02  3.3713268E+00  -5.5179650E+01
2.9728268E+02  3.3963890E+00  -5.5178846E+01
2.9728268E+02  3.3963890E+00  -5.5178846E+01
2.9726628E+02  3.4278278E+00  -5.5180811E+01
2.9726515E+02  3.4466521E+00  -5.5184024E+01
2.9726628E+02  3.4278278E+00  -5.5180811E+01
2.9726515E+02  3.4466521E+00  -5.5184024E+01
2.9729006E+02  3.4657636E+00  -5.5194641E+01
2.9729006E+02  3.4657636E+00  -5.5194641E+01
2.9731412E+02  3.4841581E+00  -5.5208114E+01
2.9731412E+02  3.4841581E+00  -5.5208114E+01
2.9733775E+02  3.5025427E+00  -5.5222334E+01
2.9733775E+02  3.5025427E+00  -5.5222334E+01
2.9736139E+02  3.5215182E+00  -5.5235725E+01
2.9736139E+02  3.5215182E+00  -5.5235725E+01
2.9738564E+02  3.5408796E+00  -5.5247373E+01
2.9738564E+02  3.5408796E+00  -5.5247373E+01
2.9740996E+02  3.5616098E+00  -5.5256187E+01
2.9743217E+02  3.5819345E+00  -5.5270038E+01
2.9740996E+02  3.5616098E+00  -5.5256187E+01
2.9743217E+02  3.5819345E+00  -5.5270038E+01
2.9745233E+02  3.6025937E+00  -5.5286329E+01
2.9745233E+02  3.6025937E+00  -5.5286329E+01
2.9747358E+02  3.6236412E+00  -5.5305114E+01
2.9749334E+02  3.6449427E+00  -5.5325536E+01
2.9747358E+02  3.6236412E+00  -5.5305114E+01
2.9749334E+02  3.6449427E+00  -5.5325536E+01
2.9750981E+02  3.6675972E+00  -5.5347364E+01
2.9752350E+02  3.6879202E+00  -5.5365667E+01
2.9750981E+02  3.6675972E+00  -5.5347364E+01
2.9757492E+02  3.1230528E+00  -5.5801167E+01
2.9792481E+02  2.6673630E+00  -5.5826875E+01
2.9733933E+02  3.3470944E+00  -5.5181226E+01
2.9775595E+02  2.8704100E+00  -5.5215966E+01
2.9792481E+02  2.6673630E+00  -5.5826875E+01
2.9823509E+02  2.1834343E+00  -5.5843533E+01
2.9775595E+02  2.8704100E+00  -5.5215966E+01
2.9816147E+02  2.3834612E+00  -5.5236957E+01
2.9823509E+02  2.1834343E+00  -5.5843533E+01
2.9849796E+02  1.6719721E+00  -5.5850005E+01
2.9816147E+02  2.3834612E+00  -5.5236957E+01
2.9849345E+02  1.8437378E+00  -5.5259011E+01
2.9849796E+02  1.6719721E+00  -5.5850005E+01
2.9870109E+02  1.1339439E+00  -5.5850013E+01
2.9849345E+02  1.8437378E+00  -5.5259011E+01
2.9872335E+02  1.2531769E+00  -5.5278328E+01
2.9870109E+02  1.1339439E+00  -5.5850013E+01
2.9882917E+02  5.7329313E-01  -5.5850013E+01
2.9872335E+02  1.2531769E+00  -5.5278328E+01
2.9885161E+02  6.3241562E-01  -5.5292215E+01
2.9882917E+02  5.7329313E-01  -5.5850013E+01
2.9887466E+02  0.0000000E+00  -5.5850015E+01
2.9885161E+02  6.3241562E-01  -5.5292215E+01
2.9889617E+02  0.0000000E+00  -5.5299377E+01
2.9028109E+02  6.0145063E+00  -5.4595002E+01
2.8940316E+02  6.1479545E+00  -5.4436546E+01

CELLS 218 654
2 0 1
2 2 3
2 4 5
2 6 7
2 8 9
2 10 11
2 12 13
2 14 15
2 16 17
2 18 19
2 20 21
2 22 23
2 24 25
2 26 27
2 28 29
2 30 31
2 32 33
2 34 35
2 36 37
2 38 39
2 40 41
2 42 43
2 44 45
2 46 47
2 48 49
2 50 51
2 52 53
2 54 55
2 56 57
2 58 59
2 60 61
2 62 63
2 64 65
2 66 67
2 68 69
2 70 71
2 72 73
2 74 75
2 76 77
2 78 79
2 80 81
2 82 83
2 84 85
2 86 87
2 88 89
2 90 91
2 92 93
2 94 95
2 96 97
2 98 99
2 100 101
2 102 103
2 104 105
2 106 107
2 108 109
2 110 111
2 112 113
2 114 115
2 116 117
2 118 119
2 120 121
2 122 123
2 124 125
2 126 127
2 128 129
2 130 131
2 132 133
2 134 135
2 136 137
2 138 139
2 140 141
2 142 143
2 144 145
2 146 147
2 148 149
2 150 151
2 152 153
2 154 155
2 156 157
2 158 159
2 160 161
2 162 163
2 164 165
2 166 167
2 168 169
2 170 171
2 172 173
2 174 175
2 176 177
2 178 179
2 180 181
2 182 183
2 184 185
2 186 187
2 188 189
2 190 191
2 192 193
2 194 195
2 196 197
2 198 199
2 200 201
2 202 203
2 204 205
2 206 207
2 208 209
2 210 211
2 212 213
2 214 215
2 216 217
2 218 219
2 220 221
2 222 223
2 224 225
2 226 227
2 228 229
2 230 231
2 232 233
2 234 235
2 236 237
2 238 239
2 240 241
2 242 243
2 244 245
2 246 247
2 248 249
2 250 251
2 252 253
2 254 255
2 256 257
2 258 259
2 260 261
2 262 263
2 264 265
2 266 267
2 268 269
2 270 271
2 272 273
2 274 275
2 276 277
2 278 279
2 280 281
2 282 283
2 284 285
2 286 287
2 288 289
2 290 291
2 292 293
2 294 295
2 296 297
2 298 299
2 300 301
2 302 303
2 304 305
2 306 307
2 308 309
2 310 311
2 312 313
2 314 315
2 316 317
2 318 319
2 320 321
2 322 323
2 324 325
2 326 327
2 328 329
2 330 331
2 332 333
2 334 335
2 336 337
2 338 339
2 340 341
2 342 343
2 344 345
2 346 347
2 348 349
2 350 351
2 352 353
2 354 355
2 356 357
2 358 359
2 360 361
2 362 363
2 364 365
2 366 367
2 368 369
2 370 371
2 372 373
2 374 375
2 376 377
2 378 379
2 380 381
2 382 383
2 384 385
2 386 387
2 388 389
2 390 391
2 392 393
2 394 395
2 396 397
2 398 399
2 400 401
2 402 403
2 404 405
2 406 407
2 408 409
2 410 411
2 412 413
2 414 415
2 416 417
2 418 419
2 420 421
2 422 423
2 424 425
2 426 427
2 428 429
2 430 431
2 432 433
2 434 435

CELL_TYPES 218
3
3
3
3
3
3
3
3
3
3
3
3
3
3
3
3
3
3
3
3
3
3
3
3
3
3
3
3
3
3
3
3
3
3
3
3
3
3
3
3
3
3
3
3
3
3
3
3
3
3
3
3
3
3
3
3
3
3
3
3
3
3
3
3
3
3
3
3
3
3
3
3
3
3
3
3
3
3
3
3
3
3
3
3
3
3
3
3
3
3
3
3
3
3
3
3
3
3
3
3
3
3
3
3
3
3
3
3
3
3
3
3
3
3
3
3
3
3
3
3
3
3
3
3
3
3
3
3
3
3
3
3
3
3
3
3
3
3
3
3
3
3
3
3
3
3
3
3
3
3
3
3
3
3
3
3
3
3
3
3
3
3
3
3
3
3
3
3
3
3
3
3
3
3
3
3
3
3
3
3
3
3
3
3
3
3
3
3
3
3
3
3
3
3
3
3
3
3
3
3
3
3
3
3
3
3
3
3
3
3
3
3
3
3
3
3
3
3

CELL_DATA 218
SCALARS rig_tension_in_N float 1
LOOKUP_TABLE default
1.50e+03
1.50e+03
1.50e+03
1.51e+03
1.53e+03
1.55e+03
1.59e+03
1.63e+03
1.69e+03
3.94e+03
3.94e+03
4.05e+03
4.33e+03
4.66e+03
4.89e+03
4.98e+03
5.05e+03
5.09e+03
5.14e+03
5.17e+03
5.20e+03
5.23e+03
5.26e+03
5.28e+03
5.30e+03
5.32e+03
5.33e+03
5.35e+03
5.36e+03
5.37e+03
5.39e+03
5.40e+03
5.41e+03
5.41e+03
-0.00e+00
-0.00e+00
4.17e+03
4.16e+03
4.16e+03
4.16e+03
4.14e+03
4.12e+03
4.11e+03
4.07e+03
4.07e+03
4.04e+03
4.00e+03
4.00e+03
3.96e+03
9.57e-01
9.39e-01
9.07e-01
8.79e-01
8.98e-01
8.74e-01
8.74e-01
9.06e-01
-0.00e+00
-0.00e+00
-0.00e+00
-0.00e+00
-0.00e+00
-0.00e+00
-0.00e+00
-0.00e+00
-0.00e+00
2.89e+02
2.89e+02
2.89e+02
2.90e+02
2.92e+02
2.93e+02
5.46e+03
5.46e+03
5.47e+03
5.47e+03
5.47e+03
5.47e+03
5.47e+03
4.18e+03
4.18e+03
4.18e+03
4.18e+03
4.18e+03
4.18e+03
4.18e+03
9.62e+03
9.65e+03
9.69e+03
9.72e+03
9.76e+03
2.92e+04
2.94e+04
2.96e+04
2.97e+04
2.99e+04
3.01e+04
3.03e+04
8.17e+02
-2.17e+03
-1.90e+03
2.86e+03
1.04e+04
1.57e+04
1.40e+04
2.30e+04
4.66e+03
5.40e+03
6.39e+03
6.34e+03
6.29e+03
6.10e+03
5.98e+03
2.08e+04
2.08e+04
2.08e+04
-1.34e+04
-1.25e+04
1.48e+03
-2.13e-01
-1.98e-01
-1.65e-01
-1.21e-01
-8.15e-02
-4.92e-02
4.37e+02
-1.81e-01
-8.61e-02
-8.32e-02
-1.72e-01
-2.86e-01
-3.78e-01
-4.56e-01
-5.11e-01
-5.29e-01
-5.11e-01
-4.78e-01
-4.39e-01
-4.01e-01
-3.70e-01
-3.50e-01
-3.37e-01
4.53e+03
4.46e+03
1.18e+03
1.17e+03
4.37e+03
1.10e+03
1.13e+03
4.27e+03
1.02e+03
1.05e+03
4.17e+03
9.47e+02
9.73e+02
4.07e+03
8.70e+02
8.95e+02
3.97e+03
7.85e+02
8.16e+02
3.87e+03
6.94e+02
7.31e+02
3.77e+03
6.31e+02
6.54e+02
3.67e+03
5.61e+02
5.92e+02
3.58e+03
4.45e+02
4.98e+02
3.50e+03
3.03e+02
3.56e+02
3.42e+03
2.37e+02
2.58e+02
3.34e+03
1.67e+02
1.98e+02
3.29e+03
1.19e+02
1.25e+02
3.27e+03
9.93e+01
1.05e+02
3.25e+03
2.44e+03
1.60e+03
9.26e+02
5.87e+02
5.35e+02
4.85e+02
4.43e+02
4.17e+02
3.75e+02
3.36e+02
2.99e+02
2.60e+02
2.17e+02
1.81e+02
1.56e+02
1.36e+02
3.42e+03
1.18e+03
3.40e+03
1.22e+03
3.38e+03
1.02e+03
3.35e+03
8.71e+02
3.32e+03
7.93e+02
3.30e+03
7.62e+02
1.89e+03
SCALARS element_no float 1
LOOKUP_TABLE default
1
1
1
1
1
1
1
1
1
2
2
2
2
2
2
2
2
2
2
2
2
2
2
2
2
2
2
2
2
2
2
2
2
2
3
3
4
4
4
4
4
4
4
4
4
4
4
4
4
5
5
5
5
5
5
5
5
6
6
6
6
6
7
7
7
7
8
8
8
9
9
9
10
10
10
10
10
10
10
11
11
11
11
11
11
11
12
12
12
12
12
13
13
13
13
13
13
13
14
15
16
17
18
19
20
21
22
23
24
24
24
24
24
25
25
25
26
27
28
29
30
31
32
33
34
35
36
37
38
39
40
41
42
43
44
45
46
47
48
49
50
51
52
53
54
54
55
56
56
57
58
58
59
60
60
61
62
62
63
64
64
65
66
66
67
68
68
69
70
70
71
72
72
73
74
74
75
76
76
77
78
78
79
80
80
81
82
82
83
84
84
84
84
84
84
84
84
84
84
84
84
84
84
84
84
85
86
87
88
89
90
91
92
93
94
95
96
97
